ITEM: TIMESTEP
100000
ITEM: NUMBER OF ATOMS
816
ITEM: BOX BOUNDS pp pp pp
1.12499 30.7059
1.12499 30.7059
1.12499 30.7059
ITEM: ATOMS id mol type xu yu zu 
1 1 6     20.852174365      7.477210238     -7.100996148
2 2 6     31.744537045     23.966875992     32.020904230
3 3 6     27.949564309      5.967704986     33.795785114
4 4 6      5.856470648     17.191938357     26.211757611
5 5 6     31.336944372     26.362915893     17.942095034
6 6 6     15.837008021     18.961647155     28.329344047
7 7 6     19.847997597      6.231121059     13.906861160
8 8 6     18.635133739     19.638946999     21.830128983
9 9 6     23.663176045     10.487030946     -3.156948220
10 10 6     12.488193648     29.769978123     25.126271362
11 11 6     35.506869337     15.282964067     13.632181597
12 12 6      4.954150251     28.090929539      8.723150751
13 13 6     15.000276034     27.974664150     11.339496442
14 14 6     -4.151415913     22.774529571     11.060795162
15 15 6     20.269343912     34.900874375      8.254927113
16 16 6     11.340871962      7.177538041      0.967527320
17 17 6     25.144734254      2.764320099     28.889162241
18 18 6     19.145621499     27.229511107     21.071909646
19 19 6     14.679430233     -6.019836612     15.661861537
20 20 6     26.889864036     12.067352184      6.611662226
21 21 6     10.021501941     16.552711212      2.536556052
22 22 6     23.384311095     19.271775961     10.976686742
23 23 6     18.979824870     -3.776855018      2.352810809
24 24 6      1.419848703     26.487041981      0.540983785
25 25 6     27.796921447      5.788983050      1.438149716
26 26 6     15.551210488     26.264946306     21.556348919
27 27 6     13.330373966      5.456110494     23.879535996
28 28 6     21.367956960     28.886004242      3.373805078
29 29 6     11.486531009     20.337973095     24.604851859
30 30 6     29.473138821     18.191423430     13.962681031
31 31 6      4.357654619     -6.245884122     -4.371573904
32 32 6     37.661439450     36.426060142      5.329654888
33 33 6     13.146966218     32.182097156      7.135252340
34 34 6      2.958564120      9.833820165     11.107682270
35 35 6     13.281991906      1.122770344      4.764063027
36 36 6     39.975655616     10.478304695     34.622636333
37 37 6     36.053360675     22.175701847     21.516440415
38 38 6     40.385209228     11.377159247      9.036323264
39 39 6     31.942549077     -1.407051949      4.095518014
40 40 6     -3.480554430     -7.907047581      5.996298307
41 41 6     13.978394752      5.589587740     30.020074133
42 42 6      6.923451835     15.727617542     18.145793428
43 43 6     11.287411055     23.341975425      8.234154266
44 44 6     22.123390426      0.041703588     13.459003537
45 45 6     28.288383131     -0.593381660     16.255749411
46 46 6     20.583088359     14.582686752     24.878739764
47 47 6     13.256736931     22.623990973     34.219114771
48 48 6     18.660469557      4.894715760     16.116456478
49 49 6      6.561898111     17.802765138     12.745786142
50 50 6     12.688878657     25.647564120     10.659900334
51 51 6      1.555102785     17.693197511     20.089623262
52 52 6     27.049610247     26.253864666     20.347642326
53 53 6     18.777618496     -2.084936301      9.566279619
54 54 6     19.158326495     -1.905184552      6.490777338
55 55 6      6.905703207     20.385732983     27.306723537
56 56 6     18.610769516     11.226857045      9.520360155
57 57 6     14.802509364      1.572945312     39.923474975
58 58 6     -0.650972635      5.791294408     25.857410581
59 59 6     18.793883656     10.709091024     -3.347754757
60 60 6     31.499727451    -13.940643976     18.116861411
61 61 6      4.088473031     11.947174030      1.840129422
62 62 6     11.409680369     19.812825080     21.965351492
63 63 6     17.213685103      0.837590072     18.049718202
64 64 6      9.673361017      6.811628013     18.420443156
65 65 6     13.645481189     31.707950536     31.019236942
66 66 6      4.342139290     27.822667614     12.384680801
67 67 6     20.179643156     17.467814822     11.495966764
68 68 6      9.727211654     18.683273346      8.953067455
69 69 6     -0.047812870     39.031314560      8.314777831
70 70 6     22.626648405      6.686593074     11.298052582
71 71 6     25.735465527     15.691954503     -2.098361614
72 72 6      7.114960231     34.411869022      3.505331678
73 73 6     12.888668897     32.365397669     17.731556351
74 74 6      0.970906691      4.757167272      5.379443207
75 75 6     25.815880926     22.328741401     18.048960666
76 76 6     13.938257066      7.521210286      4.116642162
77 77 6      7.495058920     27.008153034      9.698048488
78 78 6     11.872874985     19.733019000     17.406804376
79 79 6     21.496435313     15.093022149     10.182904501
80 80 6     32.071336500     26.104622338     13.589148027
81 81 6     19.020281125      1.546987659     14.647803600
82 82 6     36.526548635     11.187527169     16.357232963
83 83 6    -10.147956751     28.641947293     18.719337214
84 84 6     15.243126170     24.779725949     26.700825436
85 85 6     15.013187245     31.140282899     16.620368411
86 86 6     28.378994437     18.067178962      2.700818197
87 87 6     27.152250609     17.183692546     21.205970553
88 88 6     23.398110740     14.429400336     24.527834517
89 89 6     22.953902436     21.161276443      5.014179073
90 90 6     15.375537823     18.231673295     23.860303379
91 91 6     15.825548929     18.780943344     14.266530326
92 92 6     21.571806508     -1.964469279     17.261154903
93 93 6      9.404381254     12.729721405     11.281311138
94 94 6     27.596571972      7.695110823     28.046109457
95 95 6      1.708932888     17.644256078      6.071365988
96 96 6     30.375115084     27.722876863     27.555598603
97 97 6      4.937949542    -11.099003538     23.773952667
98 98 6     37.721056541     15.517842746     34.586878447
99 99 6     22.757939693     16.678382826     12.985823347
100 100 6      3.030626029     22.650518191     16.159985346
101 101 6      8.013128924     17.220026306     29.932473797
102 102 6     11.782439239     29.845929057     16.942607433
103 103 6      9.875767145     15.348499633     26.076341580
104 104 6     12.420761410      6.561617316     10.994601301
105 105 6     -7.104538438      5.876827826      6.789295188
106 106 6     -4.547432220      9.002057491     20.657806633
107 107 6     15.371557464     22.830467406     29.134046904
108 108 6     13.588219756     17.779535283      9.713579642
109 109 6      0.153945166     18.463232857     26.135970409
110 110 6     29.393804924     25.784955447     21.333896652
111 111 6      0.841564145     24.388684273     16.420644038
112 112 6     -2.484881336     32.769031912      1.040240878
113 113 6     10.323317050     12.677340500      6.703035695
114 114 6     20.508510381     19.937758892     12.027913394
115 115 6     17.668315652     12.015120082     30.679093734
116 116 6     27.515354966     17.378557348     15.389684862
117 117 6      4.140132485     17.490663143     21.080501565
118 118 6     22.495154599     10.666283582      4.847909856
119 119 6     21.825829067      6.434628672     30.444592735
120 120 6     19.819381483     27.906230095     23.720838578
121 121 6     11.121634559      2.997210740     11.537855690
122 122 6      0.254529794      2.433159732     19.333125604
123 123 6     27.652126642     19.133288915      4.977950701
124 124 6     25.010540384     28.362749852     19.801116796
125 125 6      6.736198121      9.357706484     28.666079845
126 126 6     38.102566208     21.943028552     -5.157814961
127 127 6     -1.174084573     28.877625803     -0.573906706
128 128 6     24.669326831     -4.210603541      3.359833092
129 129 6      2.002151161     12.948131167     14.142907022
130 130 6      3.136636812     15.372368915     43.771423095
131 131 6     38.218013605      9.726165730     22.878570322
132 132 6     26.126025520     39.782879886     43.482271813
133 133 6     -0.104863729     37.421751459     22.967373776
134 134 6     25.449539325      9.482246478     28.545239303
135 135 6     15.743473577     21.079325214     40.453521478
136 136 6     18.034673514     -4.558963863     10.467810573
137 137 6      7.691235236     24.336706770     -6.761146556
138 138 6     28.719873946     24.248368319     32.234901186
139 139 6     17.277102215     20.290609165     17.737268970
140 140 6     -3.446836769     -9.899281532     10.286607318
141 141 6      3.790499306     19.998885995     27.173954252
142 142 6     12.797751449     32.981167278     13.590471552
143 143 6     20.468904440     -5.071339072      6.392079837
144 144 6     28.759840173     20.725456560     13.305271269
145 145 6     30.533653748     10.660828342     12.888388673
146 146 6      3.235657797     -4.529280892     19.719760990
147 147 6     23.364680904      7.594475402     14.033155836
148 148 6     18.091502183     20.438765336     15.129943849
149 149 6     36.093483277     24.120906371     10.226322220
150 150 6      7.480872018     26.354579751     16.027089849
151 151 6     27.177424217     21.482198668      2.702381867
152 152 6     -3.219542328     12.093807139     28.173793177
153 153 6     11.292033266     22.907942075     -4.742805488
154 154 6    -11.009886815      0.219854058     11.144328962
155 155 6     17.339995926     21.725183497     25.260245622
156 156 6      9.493659184     18.783596882      4.304568090
157 157 6     21.171675225     19.789229026     29.514083823
158 158 6     21.425682795     18.453914024     19.932762985
159 159 6     18.133500777     39.397567353     15.253468046
160 160 6     -8.863603362      0.487600842      9.105471028
161 161 6     14.345599906     29.318460140     -1.578650941
162 162 6     22.139451323     28.170972096     10.406376090
163 163 6     20.877463016     21.354493870     -2.445449489
164 164 6      7.689331331      9.842758023      5.370446020
165 165 6     15.011671676     22.369161169     20.909962985
166 166 6      3.756064347     30.092253558     10.990387088
167 167 6     24.341652719     35.379448290     29.051438642
168 168 6     13.074237592     17.856271290     -4.583811988
169 169 6      1.542423264     35.046633193      7.849997025
170 170 6     -1.572940429     23.289775457      9.586211244
171 171 6     23.773654210     -5.855955667     19.720998835
172 172 6     20.348487603      6.823981229     17.697939617
173 173 6      8.959439707     35.364008357     12.679738578
174 174 6     10.028544356     21.916641119      5.060585000
175 175 6     -8.192104998      7.248244827     34.085279720
176 176 6     20.963860352     24.323190164     30.026224952
177 177 6      0.576500908     35.054322705     -0.737319161
178 178 6     11.299412082     27.741377083     12.834273116
179 179 6     28.183637381     26.826508797     17.945978426
180 180 6     27.731158283      1.651539093      9.912757331
181 181 6     22.980032312     11.848453024     36.839252865
182 182 6     11.296364108      2.599696722     25.073102918
183 183 6     15.652870333     18.137647324     18.593516134
184 184 6     15.625374605      1.689390679      7.412236895
185 185 6      8.372791558     17.366086668     27.079229277
186 186 6     37.221170470     27.752406037     28.784008021
187 187 6     16.085349328     19.055083056      3.980862472
188 188 6     16.263433384     10.902852152      8.271169373
189 189 6      9.253160494     26.506144929     -3.037543945
190 190 6     37.792097512     33.960741950     17.824796610
191 191 6     18.384098299      5.439750522     35.394587570
192 192 6      9.125223414      9.729568026     27.016752856
193 193 6      5.710993705      7.288260133     20.736605154
194 194 6     13.027821918      5.887996811     43.846227189
195 195 6     11.812773085     14.484683298     11.510519672
196 196 6     -0.394606165      3.522002053     11.212428481
197 197 6     -3.013638680     34.066028784     27.211077639
198 198 6     25.538224785     17.394744731     31.884353927
199 199 6     21.140270218    -10.873867143     -7.013285742
200 200 6      7.065036529     14.810203106     29.556758178
201 201 1     27.913420033     -0.070803606     23.486402397
202 201 2     28.550565654      2.581948440     22.846218785
203 201 3     26.187195553      5.037570359     22.971016594
204 201 4     22.604016994      3.189174949     25.921442696
205 202 6     25.032553004      7.347599166      7.741654862
206 203 6     -5.805323419      8.612565946     33.441235638
207 204 6      2.130701622      8.320884910      9.169726142
208 205 6      0.098804215      8.787764641      0.148418401
209 206 6     19.838163047     -6.558690947     -6.155865948
210 207 6     41.087655574      6.768931044     37.896194467
211 208 6     35.123215033     25.896886940     25.957900986
212 209 6     14.143587308     11.860736331     34.279600966
213 210 6     12.888669000      9.528615859     35.315606833
214 211 6     25.196844918     20.218340237      1.273412963
215 212 6     -6.672339148     14.311180108      5.609938655
216 213 6     33.721178219     17.000379982     -0.824139836
217 214 6     27.874408671     18.979983245     23.492201290
218 215 6      5.628936645     15.950078586      2.978509675
219 216 6     20.590810698     11.787516629     31.762278040
220 217 6     18.483416533     25.327100588     27.194624438
221 218 6      1.573203902     12.609809731      3.607115879
222 219 6     17.758256279     28.880608179     13.754987634
223 220 6     35.402273809     33.195480245     26.283242399
224 221 6     26.845247365     20.280282227     19.904846002
225 222 6     18.043578481      4.870226454      3.082663341
226 223 6     29.940138442     11.537212104     18.297577389
227 224 6     12.059258272     46.685778008     29.533806980
228 225 6     -5.021010620     14.693360486     12.232818036
229 226 6      4.894639019     26.351807759     17.242446232
230 227 6     13.464927609     22.816961369      1.805151164
231 228 6     12.135000576     21.875496442     15.207816051
232 229 6     24.164502036     18.332079025      8.546237957
233 230 6      9.246266566     33.670920428     29.118746494
234 231 6      5.308948459     21.143303349     10.566097490
235 232 6     30.386650261     19.824195758     17.925866681
236 233 6     -2.169820795     33.074558735     34.746210015
237 234 6     23.327458691     19.132311096     17.474903883
238 235 6     32.617208189     32.816618422     27.245692557
239 236 6      7.243399248      2.004543935     28.982566650
240 237 6      5.804619587     31.073418496      4.929699755
241 238 6     24.113185533     20.869033487     23.494334496
242 239 6     20.195170847      8.779802872     13.553706529
243 240 6      7.453289200     15.471277903     20.874231429
244 241 6     28.984022905     20.146973977     30.589863070
245 242 6     18.196196483     -1.187750515     -3.656695184
246 243 6      6.717724041     32.974842913     22.000990646
247 244 6     10.456075609     24.373194582      2.423031646
248 245 6     22.871291928     20.901620585     37.845036384
249 246 6     35.076882868     26.315087739      1.764105371
250 247 6     20.503164339      2.954609261     10.505265704
251 248 6      0.309198155     10.168295574     21.456715127
252 249 6     16.156151513     13.525583486     24.334237466
253 250 6     18.287947869     23.521555030     21.178886080
254 251 6     32.541278911      9.703800352      6.616756588
255 252 6     18.191870207     -8.012187366     12.420260025
256 253 6     33.018249475      3.020784972      4.253782397
257 254 6     25.018719630     14.583097260     15.060881211
258 255 6     31.210123472     16.629371931     24.874027210
259 256 6     11.183726422     27.813465693     23.567783005
260 257 6     17.655288139     17.028809826     12.714518192
261 258 6     23.282774838     -6.118156279      9.365581064
262 259 6     12.110626359     28.183884097      8.582407272
263 260 6      7.185895643     20.379514412     14.267844269
264 261 6     18.764035030     22.767751838     -2.089713181
265 262 6    -10.786317300     16.600726359     26.537705867
266 263 6     15.867676538      8.690096423     14.521647418
267 264 6     15.258193188      9.511616701     17.128135304
268 265 6      7.403860000     38.507394637     17.604857117
269 266 6     12.190133540     19.726091320      8.742878521
270 267 6     28.541814822     12.025739386     26.744978040
271 268 6      7.140055546     18.296400588      3.273822585
272 269 6     21.045726077     41.348294847     25.232217784
273 270 6     23.904434811     27.262622769     24.620795140
274 271 6     18.716098343      9.558174801     23.204661169
275 272 6     10.679960213     29.791692883     19.410423452
276 273 6     38.673926654     35.173941066     15.570239165
277 274 6      5.193856653     11.811549779     28.899394813
278 275 6     30.742420303     16.946594498     32.892606530
279 276 6      9.675709398     11.880860014     32.385555932
280 277 6      7.538921395     24.078123305      2.933660799
281 278 6      1.536149835     23.525344970     10.841089083
282 279 6     23.508821802     10.841812272      9.742170980
283 280 6     41.302235734     16.794911515     12.812601649
284 281 6     14.572852069     14.550013563     27.057438452
285 282 6     28.194967834     -2.920811729     26.392786910
286 283 6     17.020374943     24.120840363      2.652249038
287 284 6     18.043915295      5.716644711     23.223797764
288 285 6     31.918099780     23.899201595     23.062968340
289 286 6     17.346081934     14.837139178      1.917462561
290 287 6     27.347722938     24.630798267      5.208700509
291 288 6     18.690628164     16.542135807     21.337429173
292 289 6      6.784732290     -0.515120810     16.676609102
293 290 6      4.690585515      4.435298633     24.027234190
294 291 6     21.492097878     20.906623924     24.177504093
295 292 6      5.045437945     16.748052132     16.384221268
296 293 6     35.369919851     24.512475907     35.071869999
297 294 6     30.189992829     13.824715284      9.501244710
298 295 6    -18.029616186     15.685215557     24.026909784
299 296 6     10.806354639      7.734996056     27.947775782
300 297 6     27.953335009     23.722584968     15.051853757
301 298 6     -4.711301976      8.369369847     10.240451248
302 299 6      7.312634669     12.198875731     20.780745318
303 300 6     12.546188379      9.255037429      8.611434476
304 301 6     31.217946799     11.199009701     30.569414236
305 302 6     32.247624228     12.995265117     23.249578975
306 303 6      8.356735733     13.347170261     27.264164024
307 304 6      1.326812307     23.640567657     13.528969999
308 305 6      4.539346111     32.940837455     10.886295098
309 306 6     10.931098529     27.089227976      5.136155192
310 307 6     11.767404535     11.978165504     29.702992420
311 308 6     31.956569640     20.996569262     10.490419431
312 309 6     31.047085566     20.507099276     22.921739672
313 310 6     28.689214498     14.695395391      3.180882779
314 311 6      8.932293789     -2.903335975      7.291346118
315 312 6     31.173839693      4.214600939     25.163248604
316 313 6     -5.303756530     10.461241518     30.566475959
317 314 6     -0.464778855     -1.013069145     12.846451301
318 315 6     26.061772223     -8.637241861     13.352636574
319 316 6      9.915448161     19.609801964     -2.830620168
320 317 6     23.794083927     20.505647975     14.939007148
321 318 6     21.040571458      9.077948270      1.520665177
322 319 6     17.723335177     24.914182281     24.631140058
323 320 6     27.513421331     15.961834664     24.833520123
324 321 6     13.293601143     25.664892431     -0.436200593
325 322 6      3.514157917     29.171575005     36.268340952
326 323 6     16.026834989     17.438905059     38.156744918
327 324 6     22.660825120     20.365241749     31.806628290
328 325 6     28.368733960      7.516208753     36.278978134
329 326 6     13.107394363     27.720282164     15.225701817
330 327 6     22.939407465     17.071667962      5.455250226
331 328 6     14.447060351     10.941796159     31.220543606
332 329 6     20.256214582     21.118642661     19.474644404
333 330 6     10.448750031     23.911610907     15.330292073
334 331 6      9.480754698     19.149749717     18.706406098
335 332 6     16.974443302     15.453326401      6.688344669
336 333 6     30.936710141     30.390893974      7.836092615
337 334 6     24.169643797     12.138566995     32.746901322
338 335 6      3.163776993      9.458205888     25.228464781
339 336 6     15.436122560     -2.772850329      2.477758288
340 337 6     24.712367657      4.139215633     17.389521290
341 338 6     13.658162114     18.689269650     12.535921215
342 339 6     17.781751691     19.287003096     26.383840919
343 340 6     11.333104660      4.736285871      3.986835673
344 341 6      7.582327723     35.230115442     25.765294981
345 342 6     15.226378817      6.692569867      9.124371336
346 343 6      3.010863538     26.494956844      7.156358048
347 344 6     16.581895487     25.587272328     15.680107957
348 345 6     33.101900577     35.219736941     15.200440039
349 346 6     18.580843145     23.273793418      8.306140045
350 347 6     18.733559763     15.574987404     -0.416949176
351 348 6     50.329161305      3.492001499     42.837485870
352 349 6      5.742490448     19.532787068     16.314431641
353 350 6     28.770243670      1.058970086     32.939925510
354 351 6      9.607935370     17.269138777      6.791431258
355 352 6     34.722982459     25.457035734     23.236694908
356 353 6      5.796024560     10.440960089      7.154132317
357 354 6     41.147255491     15.124477682      7.358973781
358 355 6     13.832222905     26.116820376     -5.077756377
359 356 6      8.643411843     20.229448111     21.486162995
360 357 6     28.777198918     24.924839828     24.198995728
361 358 6    -11.812333350      7.636082294     25.013319735
362 359 6      0.259355726     14.349102993     -5.031303869
363 360 6     14.210159007     18.374135838     16.359741055
364 361 6     -6.750241064      2.207806695     17.355626337
365 362 6     23.915566566     31.818359354     21.502155479
366 363 6      3.215769536     31.548668729     23.554502761
367 364 6     17.621130129     10.393437571    -11.886389155
368 365 6      2.073883856     32.795320763      9.459086022
369 366 6     22.123288307     -1.122093638     19.987382491
370 367 6     28.400056677     14.595695590     15.181301061
371 368 6     30.296309333     17.949345770     22.699642388
372 369 6      9.189525055     11.242147365      0.179244875
373 370 6     38.143427818      2.690580572     33.710644666
374 371 6     13.502547660     14.841857328      9.500881815
375 372 6      3.875161591      4.244901616     21.238123682
376 373 6      8.022976923     19.079108701     23.899596073
377 374 6      4.785236081      8.508128444      2.854627765
378 375 6      3.484455355     -1.569279330     -4.854183425
379 376 6     26.564465905     14.277178155      1.139718209
380 377 6     21.487966333      0.003144643     30.242559647
381 378 6     14.356750788     22.886592085     13.017955513
382 379 6      3.053457394     17.969109636     10.412802204
383 380 6     13.642899980      8.255856525      1.577591993
384 381 6     12.028412902     14.067016282      2.071117072
385 382 6     21.741809323     25.385895623     21.062485985
386 383 6     29.129917363      4.259782158     14.006007496
387 384 6      5.037363341     14.354381135     27.598494343
388 385 6     29.225220324      1.484989609     14.491260372
389 386 6     14.698079804     22.322211841      8.436570777
390 387 6     10.446424660      1.905695621     27.631430705
391 388 6     11.310163459      0.913592512      2.759415214
392 389 6     28.098747585     15.307231116      8.595767922
393 390 6     25.747210402     19.785276780     27.943703161
394 391 6      7.102486615     27.011429509     12.352123547
395 392 6     10.145365389     -1.858920806     16.655931838
396 393 6     17.348706372     18.797118013     10.497783539
397 394 6     11.402688294      7.974757585     23.499440027
398 395 6     35.251496116      8.780728602     13.243697774
399 396 6     35.758085756     10.305243813     24.054870398
400 397 6      8.007282271     36.591925593     22.479337455
401 398 6     20.166833759     33.506407044     23.568116922
402 399 6    -14.676646105     36.688716050     18.450373714
403 400 6     19.081454200     12.558363059     18.876847796
404 401 6     -0.922929220      5.188876455      9.042071420
405 402 1     12.538517387     11.754038516     20.690126127
406 402 2     14.296964598     13.074568770     18.761368374
407 402 3     14.786192638     13.744266655     14.593885104
408 402 4     14.763777082      9.677586916     11.511331007
409 403 6      1.309817736      6.236952878     13.810916083
410 404 6     13.399730463     22.633025677     -3.024876372
411 405 6     34.490002813     30.108218402     14.808437782
412 406 6     16.235224019     -2.061088670     28.111258618
413 407 6     16.780968477     21.833399590      6.969153706
414 408 6     -2.456938085     25.417922592     12.878071855
415 409 6     18.864170398      0.897613031      6.877616504
416 410 6     -1.924612184     11.764249517     19.892183237
417 411 6     12.972809553      0.687457579     13.125325268
418 412 6     13.918303002     17.016440835     -2.119448034
419 413 6     23.886620272     14.954726264     30.943668149
420 414 6     27.442183016     14.062571320     12.815201408
421 415 6     13.617129142      4.874261915     -2.220476491
422 416 6     23.854550315     25.383171309     13.238843135
423 417 6      0.089521595     19.734912976     11.043089503
424 418 6      1.167139963     15.414176652     30.285253747
425 419 6     25.571680527     28.339534381     26.598449350
426 420 6      4.524178070      2.820918149      7.910041078
427 421 6      7.822224573     -0.086785931     33.620388632
428 422 6     23.651997954     10.635168126     12.817777694
429 423 6     35.900183361     14.083475993     15.956570847
430 424 6     20.581195634      0.953448715     24.084148393
431 425 6      7.462290302     23.915311222      7.613294810
432 426 6     15.031833225     13.528899012      7.334183893
433 427 6     29.589727578     12.053452823      7.645190141
434 428 6      5.520646664      7.659504661     24.765381440
435 429 6      2.258922702     16.230491506     37.699668381
436 430 6      8.503919898     12.375630496     18.283127871
437 431 6     14.441875152     26.745650011     18.902167669
438 432 6     24.528321425     19.229983550     21.241671888
439 433 6     22.920911788     22.961803327     -1.806265755
440 434 6      8.269877355     14.345252676     32.148128417
441 435 6     21.658453096     13.283900021     27.595073022
442 436 6      5.137444351      8.390399057     10.670519640
443 437 6     24.204832111     13.661843051     28.611056549
444 438 6     24.740082427     29.655464665     16.657091874
445 439 6     14.602018697      2.795943273     25.003975971
446 440 6      2.234817772     29.628616806     26.386184452
447 441 6      4.647019051     32.940002183      0.850911466
448 442 6      6.196870192     -6.186111798     -0.444334020
449 443 6     18.085619043     31.794012806     22.834359658
450 444 6      4.912121683      6.661615633     37.948371961
451 445 6      2.731690393     19.283442430     33.184978522
452 446 6      1.701788056     -7.416982625     20.935338359
453 447 6      6.033362197     18.993359521     29.332170986
454 448 6     17.167487183     14.307080159     19.576028342
455 449 6     13.889292872     37.224686741     22.033150862
456 450 6     31.470439734     17.102061525     15.964587351
457 451 6     15.135747942     28.325696913      5.851076185
458 452 6     40.325153422     20.180373629     31.975850106
459 453 6      9.306468518     14.835634654     17.109898720
460 454 6     11.231690490      5.292918150     21.234203191
461 455 6     24.750266671     15.208300083      3.772671990
462 456 6     11.607516304     34.024598006      0.686806096
463 457 6     13.559678112     33.624571655     20.283707631
464 458 6     17.527891307      2.752541494      5.435825017
465 459 6     33.693333895     15.739358734     24.445648069
466 460 6     17.398217573     21.441487772     20.083334852
467 461 6     34.760176558     22.711333035     31.584711075
468 462 6     18.622312577     -6.746232377      0.610199108
469 463 6     26.720606655     25.029325561     27.793978859
470 464 6      7.664120939     10.465095796     13.787035787
471 465 6     32.614720028      5.422764752     11.678221300
472 466 6      6.524511542      3.732491668     15.818636501
473 467 6      7.456883687      5.568272623      8.583379910
474 468 6     24.299528825     16.633683037     17.045683739
475 469 6     -7.731410864     10.700747774     -1.176984503
476 470 6     21.983038368     10.219627355     15.081674134
477 471 6      5.010124126     24.313442315     14.515691655
478 472 6      8.518342947     31.358825195     16.212650440
479 473 6     10.791785424     14.552520963     14.716120839
480 474 6     10.553732605     20.729152991     29.200256342
481 475 6     -5.645584973     26.013740866     10.366025137
482 476 6      8.315910117      0.663879920     31.181938916
483 477 6     30.038406184      8.140924886     33.052972233
484 478 6     36.226970344     17.099962449      7.734908141
485 479 6     29.555423589     22.658662628     18.457315946
486 480 6     27.292220565     13.205825907     17.040174575
487 481 6    -13.103714298     32.981687194     15.062338799
488 482 6     16.869038137     11.538201660      3.710228788
489 483 6     18.480186982     22.901017458      4.778829336
490 484 6     32.775384714     -1.299086809     16.534639923
491 485 6      9.368782835     26.008904283     13.723398394
492 486 6      9.828402272     24.975586877      9.568398164