ITEM: TIMESTEP
0
ITEM: NUMBER OF ATOMS
8000    
ITEM: BOX BOUNDS pp pp pp
0.000000000      56.402000000    
0.000000000      56.402000000    
0.000000000      56.402000000    
ITEM: ATOMS id mol type xu yu zu
1 1 1 0.000000 0.000000 0.000000
2 1 1 2.820100 2.820100 0.000000
3 1 1 0.000000 2.820100 2.820100
4 1 1 2.820100 0.000000 2.820100
5 1 2 2.820100 0.000000 0.000000
6 1 2 0.000000 2.820100 0.000000
7 1 2 0.000000 0.000000 2.820100
8 1 2 2.820100 2.820100 2.820100
9 1 1 5.640200 0.000000 0.000000
10 1 1 8.460300 2.820100 0.000000
11 1 1 5.640200 2.820100 2.820100
12 1 1 8.460300 0.000000 2.820100
13 1 2 8.460300 0.000000 0.000000
14 1 2 5.640200 2.820100 0.000000
15 1 2 5.640200 0.000000 2.820100
16 1 2 8.460300 2.820100 2.820100
17 1 1 11.280400 0.000000 0.000000
18 1 1 14.100500 2.820100 0.000000
19 1 1 11.280400 2.820100 2.820100
20 1 1 14.100500 0.000000 2.820100
21 1 2 14.100500 0.000000 0.000000
22 1 2 11.280400 2.820100 0.000000
23 1 2 11.280400 0.000000 2.820100
24 1 2 14.100500 2.820100 2.820100
25 1 1 16.920600 0.000000 0.000000
26 1 1 19.740700 2.820100 0.000000
27 1 1 16.920600 2.820100 2.820100
28 1 1 19.740700 0.000000 2.820100
29 1 2 19.740700 0.000000 0.000000
30 1 2 16.920600 2.820100 0.000000
31 1 2 16.920600 0.000000 2.820100
32 1 2 19.740700 2.820100 2.820100
33 1 1 22.560800 0.000000 0.000000
34 1 1 25.380900 2.820100 0.000000
35 1 1 22.560800 2.820100 2.820100
36 1 1 25.380900 0.000000 2.820100
37 1 2 25.380900 0.000000 0.000000
38 1 2 22.560800 2.820100 0.000000
39 1 2 22.560800 0.000000 2.820100
40 1 2 25.380900 2.820100 2.820100
41 1 1 28.201000 0.000000 0.000000
42 1 1 31.021100 2.820100 0.000000
43 1 1 28.201000 2.820100 2.820100
44 1 1 31.021100 0.000000 2.820100
45 1 2 31.021100 0.000000 0.000000
46 1 2 28.201000 2.820100 0.000000
47 1 2 28.201000 0.000000 2.820100
48 1 2 31.021100 2.820100 2.820100
49 1 1 33.841200 0.000000 0.000000
50 1 1 36.661300 2.820100 0.000000
51 1 1 33.841200 2.820100 2.820100
52 1 1 36.661300 0.000000 2.820100
53 1 2 36.661300 0.000000 0.000000
54 1 2 33.841200 2.820100 0.000000
55 1 2 33.841200 0.000000 2.820100
56 1 2 36.661300 2.820100 2.820100
57 1 1 39.481400 0.000000 0.000000
58 1 1 42.301500 2.820100 0.000000
59 1 1 39.481400 2.820100 2.820100
60 1 1 42.301500 0.000000 2.820100
61 1 2 42.301500 0.000000 0.000000
62 1 2 39.481400 2.820100 0.000000
63 1 2 39.481400 0.000000 2.820100
64 1 2 42.301500 2.820100 2.820100
65 1 1 45.121600 0.000000 0.000000
66 1 1 47.941700 2.820100 0.000000
67 1 1 45.121600 2.820100 2.820100
68 1 1 47.941700 0.000000 2.820100
69 1 2 47.941700 0.000000 0.000000
70 1 2 45.121600 2.820100 0.000000
71 1 2 45.121600 0.000000 2.820100
72 1 2 47.941700 2.820100 2.820100
73 1 1 50.761800 0.000000 0.000000
74 1 1 53.581900 2.820100 0.000000
75 1 1 50.761800 2.820100 2.820100
76 1 1 53.581900 0.000000 2.820100
77 1 2 53.581900 0.000000 0.000000
78 1 2 50.761800 2.820100 0.000000
79 1 2 50.761800 0.000000 2.820100
80 1 2 53.581900 2.820100 2.820100
81 1 1 0.000000 5.640200 0.000000
82 1 1 2.820100 8.460300 0.000000
83 1 1 0.000000 8.460300 2.820100
84 1 1 2.820100 5.640200 2.820100
85 1 2 2.820100 5.640200 0.000000
86 1 2 0.000000 8.460300 0.000000
87 1 2 0.000000 5.640200 2.820100
88 1 2 2.820100 8.460300 2.820100
89 1 1 5.640200 5.640200 0.000000
90 1 1 8.460300 8.460300 0.000000
91 1 1 5.640200 8.460300 2.820100
92 1 1 8.460300 5.640200 2.820100
93 1 2 8.460300 5.640200 0.000000
94 1 2 5.640200 8.460300 0.000000
95 1 2 5.640200 5.640200 2.820100
96 1 2 8.460300 8.460300 2.820100
97 1 1 11.280400 5.640200 0.000000
98 1 1 14.100500 8.460300 0.000000
99 1 1 11.280400 8.460300 2.820100
100 1 1 14.100500 5.640200 2.820100
101 1 2 14.100500 5.640200 0.000000
102 1 2 11.280400 8.460300 0.000000
103 1 2 11.280400 5.640200 2.820100
104 1 2 14.100500 8.460300 2.820100
105 1 1 16.920600 5.640200 0.000000
106 1 1 19.740700 8.460300 0.000000
107 1 1 16.920600 8.460300 2.820100
108 1 1 19.740700 5.640200 2.820100
109 1 2 19.740700 5.640200 0.000000
110 1 2 16.920600 8.460300 0.000000
111 1 2 16.920600 5.640200 2.820100
112 1 2 19.740700 8.460300 2.820100
113 1 1 22.560800 5.640200 0.000000
114 1 1 25.380900 8.460300 0.000000
115 1 1 22.560800 8.460300 2.820100
116 1 1 25.380900 5.640200 2.820100
117 1 2 25.380900 5.640200 0.000000
118 1 2 22.560800 8.460300 0.000000
119 1 2 22.560800 5.640200 2.820100
120 1 2 25.380900 8.460300 2.820100
121 1 1 28.201000 5.640200 0.000000
122 1 1 31.021100 8.460300 0.000000
123 1 1 28.201000 8.460300 2.820100
124 1 1 31.021100 5.640200 2.820100
125 1 2 31.021100 5.640200 0.000000
126 1 2 28.201000 8.460300 0.000000
127 1 2 28.201000 5.640200 2.820100
128 1 2 31.021100 8.460300 2.820100
129 1 1 33.841200 5.640200 0.000000
130 1 1 36.661300 8.460300 0.000000
131 1 1 33.841200 8.460300 2.820100
132 1 1 36.661300 5.640200 2.820100
133 1 2 36.661300 5.640200 0.000000
134 1 2 33.841200 8.460300 0.000000
135 1 2 33.841200 5.640200 2.820100
136 1 2 36.661300 8.460300 2.820100
137 1 1 39.481400 5.640200 0.000000
138 1 1 42.301500 8.460300 0.000000
139 1 1 39.481400 8.460300 2.820100
140 1 1 42.301500 5.640200 2.820100
141 1 2 42.301500 5.640200 0.000000
142 1 2 39.481400 8.460300 0.000000
143 1 2 39.481400 5.640200 2.820100
144 1 2 42.301500 8.460300 2.820100
145 1 1 45.121600 5.640200 0.000000
146 1 1 47.941700 8.460300 0.000000
147 1 1 45.121600 8.460300 2.820100
148 1 1 47.941700 5.640200 2.820100
149 1 2 47.941700 5.640200 0.000000
150 1 2 45.121600 8.460300 0.000000
151 1 2 45.121600 5.640200 2.820100
152 1 2 47.941700 8.460300 2.820100
153 1 1 50.761800 5.640200 0.000000
154 1 1 53.581900 8.460300 0.000000
155 1 1 50.761800 8.460300 2.820100
156 1 1 53.581900 5.640200 2.820100
157 1 2 53.581900 5.640200 0.000000
158 1 2 50.761800 8.460300 0.000000
159 1 2 50.761800 5.640200 2.820100
160 1 2 53.581900 8.460300 2.820100
161 1 1 0.000000 11.280400 0.000000
162 1 1 2.820100 14.100500 0.000000
163 1 1 0.000000 14.100500 2.820100
164 1 1 2.820100 11.280400 2.820100
165 1 2 2.820100 11.280400 0.000000
166 1 2 0.000000 14.100500 0.000000
167 1 2 0.000000 11.280400 2.820100
168 1 2 2.820100 14.100500 2.820100
169 1 1 5.640200 11.280400 0.000000
170 1 1 8.460300 14.100500 0.000000
171 1 1 5.640200 14.100500 2.820100
172 1 1 8.460300 11.280400 2.820100
173 1 2 8.460300 11.280400 0.000000
174 1 2 5.640200 14.100500 0.000000
175 1 2 5.640200 11.280400 2.820100
176 1 2 8.460300 14.100500 2.820100
177 1 1 11.280400 11.280400 0.000000
178 1 1 14.100500 14.100500 0.000000
179 1 1 11.280400 14.100500 2.820100
180 1 1 14.100500 11.280400 2.820100
181 1 2 14.100500 11.280400 0.000000
182 1 2 11.280400 14.100500 0.000000
183 1 2 11.280400 11.280400 2.820100
184 1 2 14.100500 14.100500 2.820100
185 1 1 16.920600 11.280400 0.000000
186 1 1 19.740700 14.100500 0.000000
187 1 1 16.920600 14.100500 2.820100
188 1 1 19.740700 11.280400 2.820100
189 1 2 19.740700 11.280400 0.000000
190 1 2 16.920600 14.100500 0.000000
191 1 2 16.920600 11.280400 2.820100
192 1 2 19.740700 14.100500 2.820100
193 1 1 22.560800 11.280400 0.000000
194 1 1 25.380900 14.100500 0.000000
195 1 1 22.560800 14.100500 2.820100
196 1 1 25.380900 11.280400 2.820100
197 1 2 25.380900 11.280400 0.000000
198 1 2 22.560800 14.100500 0.000000
199 1 2 22.560800 11.280400 2.820100
200 1 2 25.380900 14.100500 2.820100
201 1 1 28.201000 11.280400 0.000000
202 1 1 31.021100 14.100500 0.000000
203 1 1 28.201000 14.100500 2.820100
204 1 1 31.021100 11.280400 2.820100
205 1 2 31.021100 11.280400 0.000000
206 1 2 28.201000 14.100500 0.000000
207 1 2 28.201000 11.280400 2.820100
208 1 2 31.021100 14.100500 2.820100
209 1 1 33.841200 11.280400 0.000000
210 1 1 36.661300 14.100500 0.000000
211 1 1 33.841200 14.100500 2.820100
212 1 1 36.661300 11.280400 2.820100
213 1 2 36.661300 11.280400 0.000000
214 1 2 33.841200 14.100500 0.000000
215 1 2 33.841200 11.280400 2.820100
216 1 2 36.661300 14.100500 2.820100
217 1 1 39.481400 11.280400 0.000000
218 1 1 42.301500 14.100500 0.000000
219 1 1 39.481400 14.100500 2.820100
220 1 1 42.301500 11.280400 2.820100
221 1 2 42.301500 11.280400 0.000000
222 1 2 39.481400 14.100500 0.000000
223 1 2 39.481400 11.280400 2.820100
224 1 2 42.301500 14.100500 2.820100
225 1 1 45.121600 11.280400 0.000000
226 1 1 47.941700 14.100500 0.000000
227 1 1 45.121600 14.100500 2.820100
228 1 1 47.941700 11.280400 2.820100
229 1 2 47.941700 11.280400 0.000000
230 1 2 45.121600 14.100500 0.000000
231 1 2 45.121600 11.280400 2.820100
232 1 2 47.941700 14.100500 2.820100
233 1 1 50.761800 11.280400 0.000000
234 1 1 53.581900 14.100500 0.000000
235 1 1 50.761800 14.100500 2.820100
236 1 1 53.581900 11.280400 2.820100
237 1 2 53.581900 11.280400 0.000000
238 1 2 50.761800 14.100500 0.000000
239 1 2 50.761800 11.280400 2.820100
240 1 2 53.581900 14.100500 2.820100
241 1 1 0.000000 16.920600 0.000000
242 1 1 2.820100 19.740700 0.000000
243 1 1 0.000000 19.740700 2.820100
244 1 1 2.820100 16.920600 2.820100
245 1 2 2.820100 16.920600 0.000000
246 1 2 0.000000 19.740700 0.000000
247 1 2 0.000000 16.920600 2.820100
248 1 2 2.820100 19.740700 2.820100
249 1 1 5.640200 16.920600 0.000000
250 1 1 8.460300 19.740700 0.000000
251 1 1 5.640200 19.740700 2.820100
252 1 1 8.460300 16.920600 2.820100
253 1 2 8.460300 16.920600 0.000000
254 1 2 5.640200 19.740700 0.000000
255 1 2 5.640200 16.920600 2.820100
256 1 2 8.460300 19.740700 2.820100
257 1 1 11.280400 16.920600 0.000000
258 1 1 14.100500 19.740700 0.000000
259 1 1 11.280400 19.740700 2.820100
260 1 1 14.100500 16.920600 2.820100
261 1 2 14.100500 16.920600 0.000000
262 1 2 11.280400 19.740700 0.000000
263 1 2 11.280400 16.920600 2.820100
264 1 2 14.100500 19.740700 2.820100
265 1 1 16.920600 16.920600 0.000000
266 1 1 19.740700 19.740700 0.000000
267 1 1 16.920600 19.740700 2.820100
268 1 1 19.740700 16.920600 2.820100
269 1 2 19.740700 16.920600 0.000000
270 1 2 16.920600 19.740700 0.000000
271 1 2 16.920600 16.920600 2.820100
272 1 2 19.740700 19.740700 2.820100
273 1 1 22.560800 16.920600 0.000000
274 1 1 25.380900 19.740700 0.000000
275 1 1 22.560800 19.740700 2.820100
276 1 1 25.380900 16.920600 2.820100
277 1 2 25.380900 16.920600 0.000000
278 1 2 22.560800 19.740700 0.000000
279 1 2 22.560800 16.920600 2.820100
280 1 2 25.380900 19.740700 2.820100
281 1 1 28.201000 16.920600 0.000000
282 1 1 31.021100 19.740700 0.000000
283 1 1 28.201000 19.740700 2.820100
284 1 1 31.021100 16.920600 2.820100
285 1 2 31.021100 16.920600 0.000000
286 1 2 28.201000 19.740700 0.000000
287 1 2 28.201000 16.920600 2.820100
288 1 2 31.021100 19.740700 2.820100
289 1 1 33.841200 16.920600 0.000000
290 1 1 36.661300 19.740700 0.000000
291 1 1 33.841200 19.740700 2.820100
292 1 1 36.661300 16.920600 2.820100
293 1 2 36.661300 16.920600 0.000000
294 1 2 33.841200 19.740700 0.000000
295 1 2 33.841200 16.920600 2.820100
296 1 2 36.661300 19.740700 2.820100
297 1 1 39.481400 16.920600 0.000000
298 1 1 42.301500 19.740700 0.000000
299 1 1 39.481400 19.740700 2.820100
300 1 1 42.301500 16.920600 2.820100
301 1 2 42.301500 16.920600 0.000000
302 1 2 39.481400 19.740700 0.000000
303 1 2 39.481400 16.920600 2.820100
304 1 2 42.301500 19.740700 2.820100
305 1 1 45.121600 16.920600 0.000000
306 1 1 47.941700 19.740700 0.000000
307 1 1 45.121600 19.740700 2.820100
308 1 1 47.941700 16.920600 2.820100
309 1 2 47.941700 16.920600 0.000000
310 1 2 45.121600 19.740700 0.000000
311 1 2 45.121600 16.920600 2.820100
312 1 2 47.941700 19.740700 2.820100
313 1 1 50.761800 16.920600 0.000000
314 1 1 53.581900 19.740700 0.000000
315 1 1 50.761800 19.740700 2.820100
316 1 1 53.581900 16.920600 2.820100
317 1 2 53.581900 16.920600 0.000000
318 1 2 50.761800 19.740700 0.000000
319 1 2 50.761800 16.920600 2.820100
320 1 2 53.581900 19.740700 2.820100
321 1 1 0.000000 22.560800 0.000000
322 1 1 2.820100 25.380900 0.000000
323 1 1 0.000000 25.380900 2.820100
324 1 1 2.820100 22.560800 2.820100
325 1 2 2.820100 22.560800 0.000000
326 1 2 0.000000 25.380900 0.000000
327 1 2 0.000000 22.560800 2.820100
328 1 2 2.820100 25.380900 2.820100
329 1 1 5.640200 22.560800 0.000000
330 1 1 8.460300 25.380900 0.000000
331 1 1 5.640200 25.380900 2.820100
332 1 1 8.460300 22.560800 2.820100
333 1 2 8.460300 22.560800 0.000000
334 1 2 5.640200 25.380900 0.000000
335 1 2 5.640200 22.560800 2.820100
336 1 2 8.460300 25.380900 2.820100
337 1 1 11.280400 22.560800 0.000000
338 1 1 14.100500 25.380900 0.000000
339 1 1 11.280400 25.380900 2.820100
340 1 1 14.100500 22.560800 2.820100
341 1 2 14.100500 22.560800 0.000000
342 1 2 11.280400 25.380900 0.000000
343 1 2 11.280400 22.560800 2.820100
344 1 2 14.100500 25.380900 2.820100
345 1 1 16.920600 22.560800 0.000000
346 1 1 19.740700 25.380900 0.000000
347 1 1 16.920600 25.380900 2.820100
348 1 1 19.740700 22.560800 2.820100
349 1 2 19.740700 22.560800 0.000000
350 1 2 16.920600 25.380900 0.000000
351 1 2 16.920600 22.560800 2.820100
352 1 2 19.740700 25.380900 2.820100
353 1 1 22.560800 22.560800 0.000000
354 1 1 25.380900 25.380900 0.000000
355 1 1 22.560800 25.380900 2.820100
356 1 1 25.380900 22.560800 2.820100
357 1 2 25.380900 22.560800 0.000000
358 1 2 22.560800 25.380900 0.000000
359 1 2 22.560800 22.560800 2.820100
360 1 2 25.380900 25.380900 2.820100
361 1 1 28.201000 22.560800 0.000000
362 1 1 31.021100 25.380900 0.000000
363 1 1 28.201000 25.380900 2.820100
364 1 1 31.021100 22.560800 2.820100
365 1 2 31.021100 22.560800 0.000000
366 1 2 28.201000 25.380900 0.000000
367 1 2 28.201000 22.560800 2.820100
368 1 2 31.021100 25.380900 2.820100
369 1 1 33.841200 22.560800 0.000000
370 1 1 36.661300 25.380900 0.000000
371 1 1 33.841200 25.380900 2.820100
372 1 1 36.661300 22.560800 2.820100
373 1 2 36.661300 22.560800 0.000000
374 1 2 33.841200 25.380900 0.000000
375 1 2 33.841200 22.560800 2.820100
376 1 2 36.661300 25.380900 2.820100
377 1 1 39.481400 22.560800 0.000000
378 1 1 42.301500 25.380900 0.000000
379 1 1 39.481400 25.380900 2.820100
380 1 1 42.301500 22.560800 2.820100
381 1 2 42.301500 22.560800 0.000000
382 1 2 39.481400 25.380900 0.000000
383 1 2 39.481400 22.560800 2.820100
384 1 2 42.301500 25.380900 2.820100
385 1 1 45.121600 22.560800 0.000000
386 1 1 47.941700 25.380900 0.000000
387 1 1 45.121600 25.380900 2.820100
388 1 1 47.941700 22.560800 2.820100
389 1 2 47.941700 22.560800 0.000000
390 1 2 45.121600 25.380900 0.000000
391 1 2 45.121600 22.560800 2.820100
392 1 2 47.941700 25.380900 2.820100
393 1 1 50.761800 22.560800 0.000000
394 1 1 53.581900 25.380900 0.000000
395 1 1 50.761800 25.380900 2.820100
396 1 1 53.581900 22.560800 2.820100
397 1 2 53.581900 22.560800 0.000000
398 1 2 50.761800 25.380900 0.000000
399 1 2 50.761800 22.560800 2.820100
400 1 2 53.581900 25.380900 2.820100
401 1 1 0.000000 28.201000 0.000000
402 1 1 2.820100 31.021100 0.000000
403 1 1 0.000000 31.021100 2.820100
404 1 1 2.820100 28.201000 2.820100
405 1 2 2.820100 28.201000 0.000000
406 1 2 0.000000 31.021100 0.000000
407 1 2 0.000000 28.201000 2.820100
408 1 2 2.820100 31.021100 2.820100
409 1 1 5.640200 28.201000 0.000000
410 1 1 8.460300 31.021100 0.000000
411 1 1 5.640200 31.021100 2.820100
412 1 1 8.460300 28.201000 2.820100
413 1 2 8.460300 28.201000 0.000000
414 1 2 5.640200 31.021100 0.000000
415 1 2 5.640200 28.201000 2.820100
416 1 2 8.460300 31.021100 2.820100
417 1 1 11.280400 28.201000 0.000000
418 1 1 14.100500 31.021100 0.000000
419 1 1 11.280400 31.021100 2.820100
420 1 1 14.100500 28.201000 2.820100
421 1 2 14.100500 28.201000 0.000000
422 1 2 11.280400 31.021100 0.000000
423 1 2 11.280400 28.201000 2.820100
424 1 2 14.100500 31.021100 2.820100
425 1 1 16.920600 28.201000 0.000000
426 1 1 19.740700 31.021100 0.000000
427 1 1 16.920600 31.021100 2.820100
428 1 1 19.740700 28.201000 2.820100
429 1 2 19.740700 28.201000 0.000000
430 1 2 16.920600 31.021100 0.000000
431 1 2 16.920600 28.201000 2.820100
432 1 2 19.740700 31.021100 2.820100
433 1 1 22.560800 28.201000 0.000000
434 1 1 25.380900 31.021100 0.000000
435 1 1 22.560800 31.021100 2.820100
436 1 1 25.380900 28.201000 2.820100
437 1 2 25.380900 28.201000 0.000000
438 1 2 22.560800 31.021100 0.000000
439 1 2 22.560800 28.201000 2.820100
440 1 2 25.380900 31.021100 2.820100
441 1 1 28.201000 28.201000 0.000000
442 1 1 31.021100 31.021100 0.000000
443 1 1 28.201000 31.021100 2.820100
444 1 1 31.021100 28.201000 2.820100
445 1 2 31.021100 28.201000 0.000000
446 1 2 28.201000 31.021100 0.000000
447 1 2 28.201000 28.201000 2.820100
448 1 2 31.021100 31.021100 2.820100
449 1 1 33.841200 28.201000 0.000000
450 1 1 36.661300 31.021100 0.000000
451 1 1 33.841200 31.021100 2.820100
452 1 1 36.661300 28.201000 2.820100
453 1 2 36.661300 28.201000 0.000000
454 1 2 33.841200 31.021100 0.000000
455 1 2 33.841200 28.201000 2.820100
456 1 2 36.661300 31.021100 2.820100
457 1 1 39.481400 28.201000 0.000000
458 1 1 42.301500 31.021100 0.000000
459 1 1 39.481400 31.021100 2.820100
460 1 1 42.301500 28.201000 2.820100
461 1 2 42.301500 28.201000 0.000000
462 1 2 39.481400 31.021100 0.000000
463 1 2 39.481400 28.201000 2.820100
464 1 2 42.301500 31.021100 2.820100
465 1 1 45.121600 28.201000 0.000000
466 1 1 47.941700 31.021100 0.000000
467 1 1 45.121600 31.021100 2.820100
468 1 1 47.941700 28.201000 2.820100
469 1 2 47.941700 28.201000 0.000000
470 1 2 45.121600 31.021100 0.000000
471 1 2 45.121600 28.201000 2.820100
472 1 2 47.941700 31.021100 2.820100
473 1 1 50.761800 28.201000 0.000000
474 1 1 53.581900 31.021100 0.000000
475 1 1 50.761800 31.021100 2.820100
476 1 1 53.581900 28.201000 2.820100
477 1 2 53.581900 28.201000 0.000000
478 1 2 50.761800 31.021100 0.000000
479 1 2 50.761800 28.201000 2.820100
480 1 2 53.581900 31.021100 2.820100
481 1 1 0.000000 33.841200 0.000000
482 1 1 2.820100 36.661300 0.000000
483 1 1 0.000000 36.661300 2.820100
484 1 1 2.820100 33.841200 2.820100
485 1 2 2.820100 33.841200 0.000000
486 1 2 0.000000 36.661300 0.000000
487 1 2 0.000000 33.841200 2.820100
488 1 2 2.820100 36.661300 2.820100
489 1 1 5.640200 33.841200 0.000000
490 1 1 8.460300 36.661300 0.000000
491 1 1 5.640200 36.661300 2.820100
492 1 1 8.460300 33.841200 2.820100
493 1 2 8.460300 33.841200 0.000000
494 1 2 5.640200 36.661300 0.000000
495 1 2 5.640200 33.841200 2.820100
496 1 2 8.460300 36.661300 2.820100
497 1 1 11.280400 33.841200 0.000000
498 1 1 14.100500 36.661300 0.000000
499 1 1 11.280400 36.661300 2.820100
500 1 1 14.100500 33.841200 2.820100
501 1 2 14.100500 33.841200 0.000000
502 1 2 11.280400 36.661300 0.000000
503 1 2 11.280400 33.841200 2.820100
504 1 2 14.100500 36.661300 2.820100
505 1 1 16.920600 33.841200 0.000000
506 1 1 19.740700 36.661300 0.000000
507 1 1 16.920600 36.661300 2.820100
508 1 1 19.740700 33.841200 2.820100
509 1 2 19.740700 33.841200 0.000000
510 1 2 16.920600 36.661300 0.000000
511 1 2 16.920600 33.841200 2.820100
512 1 2 19.740700 36.661300 2.820100
513 1 1 22.560800 33.841200 0.000000
514 1 1 25.380900 36.661300 0.000000
515 1 1 22.560800 36.661300 2.820100
516 1 1 25.380900 33.841200 2.820100
517 1 2 25.380900 33.841200 0.000000
518 1 2 22.560800 36.661300 0.000000
519 1 2 22.560800 33.841200 2.820100
520 1 2 25.380900 36.661300 2.820100
521 1 1 28.201000 33.841200 0.000000
522 1 1 31.021100 36.661300 0.000000
523 1 1 28.201000 36.661300 2.820100
524 1 1 31.021100 33.841200 2.820100
525 1 2 31.021100 33.841200 0.000000
526 1 2 28.201000 36.661300 0.000000
527 1 2 28.201000 33.841200 2.820100
528 1 2 31.021100 36.661300 2.820100
529 1 1 33.841200 33.841200 0.000000
530 1 1 36.661300 36.661300 0.000000
531 1 1 33.841200 36.661300 2.820100
532 1 1 36.661300 33.841200 2.820100
533 1 2 36.661300 33.841200 0.000000
534 1 2 33.841200 36.661300 0.000000
535 1 2 33.841200 33.841200 2.820100
536 1 2 36.661300 36.661300 2.820100
537 1 1 39.481400 33.841200 0.000000
538 1 1 42.301500 36.661300 0.000000
539 1 1 39.481400 36.661300 2.820100
540 1 1 42.301500 33.841200 2.820100
541 1 2 42.301500 33.841200 0.000000
542 1 2 39.481400 36.661300 0.000000
543 1 2 39.481400 33.841200 2.820100
544 1 2 42.301500 36.661300 2.820100
545 1 1 45.121600 33.841200 0.000000
546 1 1 47.941700 36.661300 0.000000
547 1 1 45.121600 36.661300 2.820100
548 1 1 47.941700 33.841200 2.820100
549 1 2 47.941700 33.841200 0.000000
550 1 2 45.121600 36.661300 0.000000
551 1 2 45.121600 33.841200 2.820100
552 1 2 47.941700 36.661300 2.820100
553 1 1 50.761800 33.841200 0.000000
554 1 1 53.581900 36.661300 0.000000
555 1 1 50.761800 36.661300 2.820100
556 1 1 53.581900 33.841200 2.820100
557 1 2 53.581900 33.841200 0.000000
558 1 2 50.761800 36.661300 0.000000
559 1 2 50.761800 33.841200 2.820100
560 1 2 53.581900 36.661300 2.820100
561 1 1 0.000000 39.481400 0.000000
562 1 1 2.820100 42.301500 0.000000
563 1 1 0.000000 42.301500 2.820100
564 1 1 2.820100 39.481400 2.820100
565 1 2 2.820100 39.481400 0.000000
566 1 2 0.000000 42.301500 0.000000
567 1 2 0.000000 39.481400 2.820100
568 1 2 2.820100 42.301500 2.820100
569 1 1 5.640200 39.481400 0.000000
570 1 1 8.460300 42.301500 0.000000
571 1 1 5.640200 42.301500 2.820100
572 1 1 8.460300 39.481400 2.820100
573 1 2 8.460300 39.481400 0.000000
574 1 2 5.640200 42.301500 0.000000
575 1 2 5.640200 39.481400 2.820100
576 1 2 8.460300 42.301500 2.820100
577 1 1 11.280400 39.481400 0.000000
578 1 1 14.100500 42.301500 0.000000
579 1 1 11.280400 42.301500 2.820100
580 1 1 14.100500 39.481400 2.820100
581 1 2 14.100500 39.481400 0.000000
582 1 2 11.280400 42.301500 0.000000
583 1 2 11.280400 39.481400 2.820100
584 1 2 14.100500 42.301500 2.820100
585 1 1 16.920600 39.481400 0.000000
586 1 1 19.740700 42.301500 0.000000
587 1 1 16.920600 42.301500 2.820100
588 1 1 19.740700 39.481400 2.820100
589 1 2 19.740700 39.481400 0.000000
590 1 2 16.920600 42.301500 0.000000
591 1 2 16.920600 39.481400 2.820100
592 1 2 19.740700 42.301500 2.820100
593 1 1 22.560800 39.481400 0.000000
594 1 1 25.380900 42.301500 0.000000
595 1 1 22.560800 42.301500 2.820100
596 1 1 25.380900 39.481400 2.820100
597 1 2 25.380900 39.481400 0.000000
598 1 2 22.560800 42.301500 0.000000
599 1 2 22.560800 39.481400 2.820100
600 1 2 25.380900 42.301500 2.820100
601 1 1 28.201000 39.481400 0.000000
602 1 1 31.021100 42.301500 0.000000
603 1 1 28.201000 42.301500 2.820100
604 1 1 31.021100 39.481400 2.820100
605 1 2 31.021100 39.481400 0.000000
606 1 2 28.201000 42.301500 0.000000
607 1 2 28.201000 39.481400 2.820100
608 1 2 31.021100 42.301500 2.820100
609 1 1 33.841200 39.481400 0.000000
610 1 1 36.661300 42.301500 0.000000
611 1 1 33.841200 42.301500 2.820100
612 1 1 36.661300 39.481400 2.820100
613 1 2 36.661300 39.481400 0.000000
614 1 2 33.841200 42.301500 0.000000
615 1 2 33.841200 39.481400 2.820100
616 1 2 36.661300 42.301500 2.820100
617 1 1 39.481400 39.481400 0.000000
618 1 1 42.301500 42.301500 0.000000
619 1 1 39.481400 42.301500 2.820100
620 1 1 42.301500 39.481400 2.820100
621 1 2 42.301500 39.481400 0.000000
622 1 2 39.481400 42.301500 0.000000
623 1 2 39.481400 39.481400 2.820100
624 1 2 42.301500 42.301500 2.820100
625 1 1 45.121600 39.481400 0.000000
626 1 1 47.941700 42.301500 0.000000
627 1 1 45.121600 42.301500 2.820100
628 1 1 47.941700 39.481400 2.820100
629 1 2 47.941700 39.481400 0.000000
630 1 2 45.121600 42.301500 0.000000
631 1 2 45.121600 39.481400 2.820100
632 1 2 47.941700 42.301500 2.820100
633 1 1 50.761800 39.481400 0.000000
634 1 1 53.581900 42.301500 0.000000
635 1 1 50.761800 42.301500 2.820100
636 1 1 53.581900 39.481400 2.820100
637 1 2 53.581900 39.481400 0.000000
638 1 2 50.761800 42.301500 0.000000
639 1 2 50.761800 39.481400 2.820100
640 1 2 53.581900 42.301500 2.820100
641 1 1 0.000000 45.121600 0.000000
642 1 1 2.820100 47.941700 0.000000
643 1 1 0.000000 47.941700 2.820100
644 1 1 2.820100 45.121600 2.820100
645 1 2 2.820100 45.121600 0.000000
646 1 2 0.000000 47.941700 0.000000
647 1 2 0.000000 45.121600 2.820100
648 1 2 2.820100 47.941700 2.820100
649 1 1 5.640200 45.121600 0.000000
650 1 1 8.460300 47.941700 0.000000
651 1 1 5.640200 47.941700 2.820100
652 1 1 8.460300 45.121600 2.820100
653 1 2 8.460300 45.121600 0.000000
654 1 2 5.640200 47.941700 0.000000
655 1 2 5.640200 45.121600 2.820100
656 1 2 8.460300 47.941700 2.820100
657 1 1 11.280400 45.121600 0.000000
658 1 1 14.100500 47.941700 0.000000
659 1 1 11.280400 47.941700 2.820100
660 1 1 14.100500 45.121600 2.820100
661 1 2 14.100500 45.121600 0.000000
662 1 2 11.280400 47.941700 0.000000
663 1 2 11.280400 45.121600 2.820100
664 1 2 14.100500 47.941700 2.820100
665 1 1 16.920600 45.121600 0.000000
666 1 1 19.740700 47.941700 0.000000
667 1 1 16.920600 47.941700 2.820100
668 1 1 19.740700 45.121600 2.820100
669 1 2 19.740700 45.121600 0.000000
670 1 2 16.920600 47.941700 0.000000
671 1 2 16.920600 45.121600 2.820100
672 1 2 19.740700 47.941700 2.820100
673 1 1 22.560800 45.121600 0.000000
674 1 1 25.380900 47.941700 0.000000
675 1 1 22.560800 47.941700 2.820100
676 1 1 25.380900 45.121600 2.820100
677 1 2 25.380900 45.121600 0.000000
678 1 2 22.560800 47.941700 0.000000
679 1 2 22.560800 45.121600 2.820100
680 1 2 25.380900 47.941700 2.820100
681 1 1 28.201000 45.121600 0.000000
682 1 1 31.021100 47.941700 0.000000
683 1 1 28.201000 47.941700 2.820100
684 1 1 31.021100 45.121600 2.820100
685 1 2 31.021100 45.121600 0.000000
686 1 2 28.201000 47.941700 0.000000
687 1 2 28.201000 45.121600 2.820100
688 1 2 31.021100 47.941700 2.820100
689 1 1 33.841200 45.121600 0.000000
690 1 1 36.661300 47.941700 0.000000
691 1 1 33.841200 47.941700 2.820100
692 1 1 36.661300 45.121600 2.820100
693 1 2 36.661300 45.121600 0.000000
694 1 2 33.841200 47.941700 0.000000
695 1 2 33.841200 45.121600 2.820100
696 1 2 36.661300 47.941700 2.820100
697 1 1 39.481400 45.121600 0.000000
698 1 1 42.301500 47.941700 0.000000
699 1 1 39.481400 47.941700 2.820100
700 1 1 42.301500 45.121600 2.820100
701 1 2 42.301500 45.121600 0.000000
702 1 2 39.481400 47.941700 0.000000
703 1 2 39.481400 45.121600 2.820100
704 1 2 42.301500 47.941700 2.820100
705 1 1 45.121600 45.121600 0.000000
706 1 1 47.941700 47.941700 0.000000
707 1 1 45.121600 47.941700 2.820100
708 1 1 47.941700 45.121600 2.820100
709 1 2 47.941700 45.121600 0.000000
710 1 2 45.121600 47.941700 0.000000
711 1 2 45.121600 45.121600 2.820100
712 1 2 47.941700 47.941700 2.820100
713 1 1 50.761800 45.121600 0.000000
714 1 1 53.581900 47.941700 0.000000
715 1 1 50.761800 47.941700 2.820100
716 1 1 53.581900 45.121600 2.820100
717 1 2 53.581900 45.121600 0.000000
718 1 2 50.761800 47.941700 0.000000
719 1 2 50.761800 45.121600 2.820100
720 1 2 53.581900 47.941700 2.820100
721 1 1 0.000000 50.761800 0.000000
722 1 1 2.820100 53.581900 0.000000
723 1 1 0.000000 53.581900 2.820100
724 1 1 2.820100 50.761800 2.820100
725 1 2 2.820100 50.761800 0.000000
726 1 2 0.000000 53.581900 0.000000
727 1 2 0.000000 50.761800 2.820100
728 1 2 2.820100 53.581900 2.820100
729 1 1 5.640200 50.761800 0.000000
730 1 1 8.460300 53.581900 0.000000
731 1 1 5.640200 53.581900 2.820100
732 1 1 8.460300 50.761800 2.820100
733 1 2 8.460300 50.761800 0.000000
734 1 2 5.640200 53.581900 0.000000
735 1 2 5.640200 50.761800 2.820100
736 1 2 8.460300 53.581900 2.820100
737 1 1 11.280400 50.761800 0.000000
738 1 1 14.100500 53.581900 0.000000
739 1 1 11.280400 53.581900 2.820100
740 1 1 14.100500 50.761800 2.820100
741 1 2 14.100500 50.761800 0.000000
742 1 2 11.280400 53.581900 0.000000
743 1 2 11.280400 50.761800 2.820100
744 1 2 14.100500 53.581900 2.820100
745 1 1 16.920600 50.761800 0.000000
746 1 1 19.740700 53.581900 0.000000
747 1 1 16.920600 53.581900 2.820100
748 1 1 19.740700 50.761800 2.820100
749 1 2 19.740700 50.761800 0.000000
750 1 2 16.920600 53.581900 0.000000
751 1 2 16.920600 50.761800 2.820100
752 1 2 19.740700 53.581900 2.820100
753 1 1 22.560800 50.761800 0.000000
754 1 1 25.380900 53.581900 0.000000
755 1 1 22.560800 53.581900 2.820100
756 1 1 25.380900 50.761800 2.820100
757 1 2 25.380900 50.761800 0.000000
758 1 2 22.560800 53.581900 0.000000
759 1 2 22.560800 50.761800 2.820100
760 1 2 25.380900 53.581900 2.820100
761 1 1 28.201000 50.761800 0.000000
762 1 1 31.021100 53.581900 0.000000
763 1 1 28.201000 53.581900 2.820100
764 1 1 31.021100 50.761800 2.820100
765 1 2 31.021100 50.761800 0.000000
766 1 2 28.201000 53.581900 0.000000
767 1 2 28.201000 50.761800 2.820100
768 1 2 31.021100 53.581900 2.820100
769 1 1 33.841200 50.761800 0.000000
770 1 1 36.661300 53.581900 0.000000
771 1 1 33.841200 53.581900 2.820100
772 1 1 36.661300 50.761800 2.820100
773 1 2 36.661300 50.761800 0.000000
774 1 2 33.841200 53.581900 0.000000
775 1 2 33.841200 50.761800 2.820100
776 1 2 36.661300 53.581900 2.820100
777 1 1 39.481400 50.761800 0.000000
778 1 1 42.301500 53.581900 0.000000
779 1 1 39.481400 53.581900 2.820100
780 1 1 42.301500 50.761800 2.820100
781 1 2 42.301500 50.761800 0.000000
782 1 2 39.481400 53.581900 0.000000
783 1 2 39.481400 50.761800 2.820100
784 1 2 42.301500 53.581900 2.820100
785 1 1 45.121600 50.761800 0.000000
786 1 1 47.941700 53.581900 0.000000
787 1 1 45.121600 53.581900 2.820100
788 1 1 47.941700 50.761800 2.820100
789 1 2 47.941700 50.761800 0.000000
790 1 2 45.121600 53.581900 0.000000
791 1 2 45.121600 50.761800 2.820100
792 1 2 47.941700 53.581900 2.820100
793 1 1 50.761800 50.761800 0.000000
794 1 1 53.581900 53.581900 0.000000
795 1 1 50.761800 53.581900 2.820100
796 1 1 53.581900 50.761800 2.820100
797 1 2 53.581900 50.761800 0.000000
798 1 2 50.761800 53.581900 0.000000
799 1 2 50.761800 50.761800 2.820100
800 1 2 53.581900 53.581900 2.820100
801 1 1 0.000000 0.000000 5.640200
802 1 1 2.820100 2.820100 5.640200
803 1 1 0.000000 2.820100 8.460300
804 1 1 2.820100 0.000000 8.460300
805 1 2 2.820100 0.000000 5.640200
806 1 2 0.000000 2.820100 5.640200
807 1 2 0.000000 0.000000 8.460300
808 1 2 2.820100 2.820100 8.460300
809 1 1 5.640200 0.000000 5.640200
810 1 1 8.460300 2.820100 5.640200
811 1 1 5.640200 2.820100 8.460300
812 1 1 8.460300 0.000000 8.460300
813 1 2 8.460300 0.000000 5.640200
814 1 2 5.640200 2.820100 5.640200
815 1 2 5.640200 0.000000 8.460300
816 1 2 8.460300 2.820100 8.460300
817 1 1 11.280400 0.000000 5.640200