ITEM: TIMESTEP
22000
ITEM: NUMBER OF ATOMS
2000
ITEM: BOX BOUNDS pp pp pp
0.0000000000000000e+00 1.3000000000000000e+01
0.0000000000000000e+00 1.3000000000000000e+01
0.0000000000000000e+00 1.3000000000000000e+01
ITEM: ATOMS id type xu yu zu
1669 2 0.503546 14.0451 0.308726
1817 2 14.3883 0.549902 0.787168
1260 2 13.2676 13.0561 0.588249
441 1 15.2622 13.8702 13.9935
1791 2 3.73249 0.155821 14.4155
1462 2 3.20046 13.5263 13.0303
793 1 4.05479 0.0394448 13.4672
1532 2 3.88114 1.10543 13.0023
369 1 16.0155 0.0915979 13.8259
1983 2 3.80834 14.24 1.04523
816 1 4.88965 0.69017 0.625049
363 1 5.98832 13.7354 14.4395
594 1 5.86938 0.0146604 13.9245
100 1 19.6093 14.0904 0.748685
1192 2 -7.16777 14.316 0.300653
522 1 7.73561 1.37542 1.39041
1217 2 8.50497 0.841628 13.7348
1256 2 7.33899 0.846663 13.1394
1985 2 9.81791 14.3292 0.207261
953 1 9.42456 26.1633 0.542582
846 1 9.82369 0.521164 1.32988
445 1 -1.67716 0.126204 0.785413
865 1 23.5942 0.997966 14.2268
1344 2 -2.61343 13.1063 13.7056
431 1 12.6154 13.7958 0.983116
1249 2 11.9272 0.862088 0.297289
1341 2 13.3217 1.61161 14.1269
1004 2 0.209985 2.46092 13.4043
1835 2 14.0969 1.92457 13.4544
1421 2 2.36654 15.5127 1.05479
1272 2 1.70788 1.68571 1.27835
505 1 14.447 2.79394 0.531985
230 1 14.9736 15.0334 -12.7478
287 1 3.25293 1.79664 0.578838
814 1 16.7383 -10.2559 13.662
1608 2 17.2649 2.20968 14.2243
1000 1 4.26474 -10.9761 0.207405
301 1 5.64035 15.2081 0.0105735
389 1 18.3735 1.6808 1.08269
357 1 -8.18607 -10.2628 0.609424
316 1 7.02466 2.07274 1.29938
1644 2 6.74478 14.8365 -12.7709
460 1 6.28623 15.4403 13.7806
708 1 7.89465 1.70799 0.451284
1284 2 7.22404 15.868 0.809094
1579 2 -4.83429 2.64989 1.18554
1039 2 -3.90021 2.65793 1.25115
82 1 8.68992 1.7072 1.34497
462 1 9.8538 1.97474 14.1764
99 1 9.10332 15.0331 13.4411
616 1 -2.16459 2.37236 0.784157
1982 2 -1.6693 14.5212 0.709213
951 1 11.6443 2.65833 13.0224
1585 2 -1.24627 15.3268 14.1352
1519 2 -0.410957 2.74058 14.3232
944 1 12.3179 14.6829 13.2843
1247 2 0.535983 3.66965 13.4369
1450 2 0.693808 3.06316 14.4046
1808 2 14.8162 3.92113 13.2946
1487 2 2.09838 3.91197 14.4082
930 1 2.92537 16.4822 13.9658
804 1 4.11062 3.45555 1.0934
1839 2 -9.39266 16.5138 13.0335
588 1 -9.37952 4.19113 14.3691
407 1 5.00132 4.09392 1.11697
1159 2 4.92845 3.77386 0.189105
212 1 5.83006 -9.49653 13.6209
1679 2 6.99264 3.60611 13.3149
1179 2 -4.99854 3.37816 13.1746
748 1 8.54378 3.59974 1.31823
160 1 7.3622 3.7167 14.3329
356 1 9.76408 16.6628 13.0804
1354 2 10.0909 -8.78191 1.18106
705 1 22.2405 4.16271 13.894
1293 2 -4.08656 16.6171 13.0565
1695 2 9.91297 3.31358 13.9376
817 1 -14.5169 3.44327 1.21345
946 1 -2.08937 4.23798 13.3426
1943 2 10.9028 3.27255 0.344575
428 1 11.9242 3.99865 0.53005
1555 2 -0.31131 3.84454 14.2664
1625 2 12.6866 3.31926 0.181133
1972 2 13.1839 5.18668 1.29642
1517 2 14.4237 4.59362 1.06572
1566 2 2.54524 4.41862 13.6916
199 1 14.9482 -8.05332 13.2269
1973 2 17.3276 4.54189 13.562
1745 2 3.16158 5.13942 14.2088
1558 2 17.5364 5.51732 -12.5251
552 1 17.5394 4.97036 14.4305
222 1 18.2023 4.79108 0.579617
1152 2 -6.34573 5.44945 1.14846
128 1 -6.89918 5.71776 0.309598
580 1 6.54829 4.82744 -12.9569
282 1 6.47089 4.35807 13.9868
1606 2 20.6285 18.4197 13.9538
1351 2 8.52653 -8.23875 0.4653
759 1 7.42057 4.46561 0.718748
208 1 8.38434 18.7662 0.312913
155 1 -3.64553 -7.34427 13.2819
750 1 8.72126 5.42659 1.21313
244 1 9.55788 18.011 14.2606
211 1 22.8237 17.674 13.2968
146 1 11.3859 4.70211 1.28808
1772 2 -2.43972 5.10303 13.9919
980 1 12.7811 5.57168 0.394552
520 1 11.6193 -7.93881 0.198472
343 1 12.3183 17.6792 1.22532
1909 2 12.8969 4.71323 0.399401
1610 2 14.3693 18.9121 0.0225218
387 1 1.40324 6.59879 0.771396
736 1 0.714796 18.9699 13.726
1858 2 0.624361 6.8001 14.374
416 1 2.31387 6.99716 1.22414
1865 2 15.5393 6.6088 0.177194
1548 2 1.69759 7.09205 0.00100901
606 1 -10.8815 5.99966 14.3118
935 1 3.39996 18.8898 0.699203
1325 2 17.0409 5.90305 14.383
1903 2 3.40533 6.90258 13.6701
1470 2 18.2912 5.82375 1.23564
1337 2 5.43075 6.68464 14.0417
1550 2 17.4527 6.61336 13.8383
400 1 19.0917 6.8773 13.3117
1112 2 19.8789 6.32061 13.4343
1143 2 8.62001 6.91035 0.764114
781 1 -5.22112 19.3802 0.759628
1264 2 9.85039 5.90729 1.07475
468 1 9.58429 6.81665 0.630122
1755 2 11.1171 6.05214 0.628945
871 1 10.8395 6.8312 0.0417951
1387 2 10.3856 6.78688 13.9752
1020 2 11.8088 19.9867 14.3948
766 1 -0.375928 19.2292 14.3842
1023 2 12.0141 5.98604 0.755647
585 1 -0.611462 7.07087 0.580461
1879 2 0.807223 7.49424 0.189803
981 1 0.189516 8.15144 13.65
1561 2 15.0537 8.24078 1.42467
346 1 1.49897 20.3867 1.39443
645 1 2.72995 7.7465 26.4855
1210 2 1.88727 8.02416 0.32176
1739 2 4.25705 7.50199 13.2613
592 1 4.67052 7.67441 14.3098
1348 2 5.46529 8.29493 13.4919
1769 2 6.53807 7.63558 1.20947
251 1 6.3651 8.16414 0.413274
849 1 7.32028 8.33256 0.713238
634 1 8.29567 7.83252 1.0574
1078 2 7.47196 7.42845 0.84971
132 1 20.97 20.4323 13.0782
1672 2 -3.78012 7.8444 0.674763
1896 2 23.1919 7.917 0.423136
733 1 11.4265 7.47689 0.725694
58 1 10.6397 8.46052 1.13159
569 1 -0.747741 21.1268 0.72771
1360 2 13.9687 9.65241 0.235251
609 1 13.2656 22.359 1.40384
1641 2 1.11055 8.87461 0.992293
1403 2 1.98369 9.21885 0.437853
45 1 2.74713 8.66932 13.7791
909 1 3.69016 9.499 13.5759
1433 2 4.23751 -4.1496 1.03633
1595 2 15.9345 9.46644 14.1166
1922 2 -8.3032 -4.32123 13.0398
810 1 5.42818 9.34421 13.2031
826 1 5.26969 9.29299 14.1277
420 1 6.24272 22.9391 13.8958
1820 2 -6.48075 9.21845 0.139484
113 1 6.14576 8.90852 14.2332
512 1 7.05035 -3.43437 13.7674
1999 2 8.12952 -3.00108 27.1223
879 1 -4.59185 9.66667 0.142595
1471 2 -4.49388 8.92886 14.0964
1480 2 9.98354 -3.73563 13.7809
379 1 -3.6247 -4.27978 0.329696
1880 2 10.8593 9.60419 0.51673
1401 2 -0.137323 10.096 13.3693
1017 2 12.4561 -3.85033 14.0685
258 1 -1.215 -3.05517 0.317356
698 1 -0.287057 -4.01059 13.0979
615 1 11.6317 8.74413 13.2206
1052 2 0.523718 -2.72984 1.18449
666 1 1.37799 24.1699 14.0606
1638 2 2.35152 10.3011 13.4485
808 1 2.73757 11.1853 13.1325
623 1 -8.76535 -2.59263 0.455488
1650 2 16.3253 -2.50801 1.00894
141 1 17.0444 -1.70716 -12.0478
1575 2 16.2377 -2.66561 13.0408
493 1 18.0335 11.1573 0.435481
1565 2 5.50514 10.3458 13.2964
209 1 6.79311 -2.49757 0.196862
1949 2 7.09885 10.4499 14.3214
1105 2 -6.79276 -1.86268 13.6244
688 1 7.08271 11.3698 13.85
329 1 7.76141 10.5232 0.417945
1646 2 21.1578 11.2874 0.793155
1094 2 9.88146 10.1648 0.275992
1931 2 9.37834 11.0461 0.644282
610 1 -2.13045 10.8218 0.27492
392 1 11.4744 10.8554 14.4404
1761 2 -2.34535 11.3591 1.3549
34 1 12.1028 -2.88161 27.3804
1047 2 12.4277 11.0267 1.0829
1383 2 -0.259632 -2.03145 13.0717
891 1 11.7334 -1.81445 0.254755
383 1 13.8314 11.58 13.3027
1076 2 14.0577 -0.720592 -11.6567
1787 2 15.432 11.9049 13.9311
723 1 1.94407 25.5134 0.379953
651 1 3.62531 12.0367 13.2649
1916 2 4.20253 12.2063 -11.6918
1753 2 3.2087 11.9049 1.40241
1873 2 4.49807 12.0544 13.2231
920 1 5.27555 12.7704 -12.9863
660 1 4.9562 12.8249 1.32273
1298 2 5.60641 12.09 0.638806
1021 2 -6.4643 12.2594 0.769642
501 1 6.3369 12.9472 0.0851816
108 1 7.93225 12.4661 1.25261
1015 2 7.25141 -0.028778 13.8981
110 1 8.2361 12.8901 0.291473
1113 2 21.8454 -0.296764 1.09399
632 1 -2.9117 12.1926 0.535534
1226 2 21.7977 12.0485 13.2998
813 1 11.1531 -0.974019 13.4645
183 1 -0.00443925 -0.90145 0.692872
852 1 12.0919 -1.03143 27.1499
579 1 12.2999 -0.229277 0.318955
549 1 14.1802 13.8993 2.11785
1662 2 13.1107 0.721613 1.99489
47 1 2.28203 1.32058 2.25177
1723 2 2.92563 13.7891 1.93913
1423 2 3.97366 26.6797 2.62489
691 1 4.66041 13.5379 14.9747
1660 2 5.54881 0.116902 15.0246
398 1 5.68994 1.33965 2.13627
98 1 4.39634 14.4191 28.2712
699 1 6.55475 0.762654 2.57289
1693 2 7.14022 13.8536 -11.1282
1803 2 7.75463 13.0748 2.02086
1827 2 8.30004 1.18595 15.2822
328 1 8.49746 13.3996 1.52658
190 1 -3.42259 14.3291 1.81513
895 1 -3.79234 0.567224 2.46597
1073 2 10.1231 0.20065 15.3621
672 1 10.6246 14.2745 15.314
1581 2 -1.64698 13.8414 14.6872
933 1 11.0153 13.1237 2.20557
693 1 -1.0521 13.4963 2.72328
1981 2 13.3401 15.0917 2.04486
1832 2 14.2859 1.59131 2.82172
1379 2 14.706 -10.9776 2.07482
390 1 2.58068 2.05809 2.88289
35 1 15.8657 1.63604 1.53059
1317 2 3.36138 1.52526 2.41437
1598 2 4.2542 2.71347 2.12633
943 1 3.13755 2.39653 15.0221
1290 2 18.4959 15.1867 2.68457
792 1 5.03176 1.97732 14.8853
1883 2 6.723 15.6208 2.62983
932 1 6.91428 14.7926 2.40659
1408 2 19.1337 15.3504 14.706
631 1 8.02547 2.11901 2.39163
1898 2 -5.5591 2.82977 1.87786
1604 2 -3.65193 1.5436 2.71214
1199 2 8.91836 2.43015 2.1844
1233 2 11.4198 15.1247 15.4226
372 1 10.3079 2.80542 14.8424
984 1 11.0637 1.84485 1.58727
1305 2 12.1409 1.58554 14.6564
1794 2 -1.14329 2.88041 2.14827
56 1 -0.645521 15.042 2.70177
822 1 14.4111 3.22226 14.8572
1313 2 13.4263 16.0737 2.33734
1546 2 13.7208 3.95843 -11.2097
335 1 0.82343 3.81329 2.8326
271 1 -10.6277 16.1255 14.999
1554 2 15.8738 4.32301 2.05375
783 1 28.1792 3.95926 2.60039
1067 2 -8.74078 3.88405 2.1354
382 1 3.42552 3.50887 2.32484
1683 2 5.0146 3.20704 14.5707
802 1 18.1497 3.65125 15.6711
1740 2 6.40245 3.38283 1.49828
686 1 5.96569 15.9888 2.23016
172 1 6.96055 3.62108 15.2386
1147 2 18.8656 3.99164 14.9857
1645 2 8.04125 3.87548 15.3323
381 1 7.82722 16.0775 15.8631
726 1 9.17388 3.49437 15.4849
492 1 -2.90673 17.2578 -10.4785
1380 2 9.69815 3.54385 14.7563
284 1 10.0258 3.24023 2.81858
947 1 -1.97891 3.00323 2.66181
90 1 10.9371 3.605 14.8679
976 1 25.2174 17.1751 2.10618
941 1 12.6903 3.87222 2.87584
1457 2 14.2713 5.52227 1.76323
1875 2 0.0621351 17.9811 -10.7021
1171 2 0.847696 5.29502 2.70282
54 1 15.143 5.18112 2.65756
738 1 14.4906 4.57038 2.4279
1624 2 15.3096 5.08409 14.77
548 1 3.72623 17.4806 15.8375
272 1 3.22229 5.28279 15.1085
1090 2 16.8384 18.6812 15.7976
1038 2 4.68997 5.02475 2.55835
902 1 20.2042 5.77121 2.33421
430 1 6.52655 5.00259 15.5893
1008 2 -7.111 5.06656 14.7885
341 1 21.1669 4.37383 14.5938
701 1 -5.67484 4.78013 1.5815
1373 2 8.02591 5.56158 14.9352
448 1 7.48032 4.52348 2.55127
385 1 8.50855 5.06743 2.72008
1277 2 9.06655 17.3456 1.84084
1220 2 9.28241 18.3582 15.1599
1316 2 9.2703 4.54382 2.81215
1103 2 11.2187 4.59842 2.17989
1469 2 10.4678 18.3372 15.0846
86 1 12.2478 5.05171 2.61896
1236 2 -1.06182 5.3977 1.66719
1110 2 1.18007 19.4469 15.4408
1860 2 13.2691 5.87445 2.1938
1553 2 0.0972769 20.1505 2.23619
1838 2 15.7197 20.0767 2.19565
224 1 2.63348 5.97937 -10.5196
1696 2 16.6859 6.51315 15.5052
118 1 3.13646 19.3675 1.59513
50 1 16.7857 7.20154 14.7058
732 1 5.42407 6.62636 15.4005
827 1 4.6561 5.86477 15.3045
1900 2 4.60106 6.79694 14.923
215 1 7.11503 6.44498 14.4841
1955 2 6.07525 5.89852 2.85022
1877 2 6.49325 6.89895 15.188
1822 2 19.1236 19.1342 14.662
1891 2 -4.36868 6.20813 1.85558
1458 2 7.33969 7.21844 15.7852
882 1 7.82297 6.66727 2.18429
1234 2 22.6783 -19.5195 1.88234
991 1 9.30925 6.7529 2.8118
1137 2 8.7861 5.90966 15.7587
1372 2 10.4809 6.40203 2.59877
73 1 11.4012 6.72815 2.73659
279 1 11.0345 19.1959 1.89164
1242 2 -0.881178 5.97021 2.55936
1086 2 0.698077 8.031 14.5986
873 1 0.489839 -5.05134 15.7884
41 1 15.8796 8.08201 15.0314
1971 2 14.7565 20.8188 15.361
531 1 4.01292 8.18669 1.59119
877 1 3.6751 7.67029 15.8058
1901 2 4.2815 8.28588 15.659
10 1 4.87863 7.54523 2.53087
1411 2 5.48124 20.4732 14.8373
799 1 18.8305 -4.41899 15.0079
83 1 6.63537 8.03084 -10.6952
463 1 -5.65587 7.66748 14.7757
925 1 21.6102 7.38866 1.98445
1366 2 -3.85302 8.14395 14.9432
225 1 10.0833 7.34895 15.4447
475 1 9.94119 -5.36021 14.5079
393 1 9.27786 -5.0613 15.7821
1663 2 10.5337 8.30028 15.0805
1281 2 10.8937 7.22789 14.9548
1045 2 -1.36168 -4.73738 1.58602
1970 2 -1.20282 -5.43976 2.19887
1319 2 -0.294294 7.91756 1.67363
561 1 12.2423 -4.50899 2.41098
57 1 14.023 9.9223 2.384
140 1 0.406859 8.8107 15.4566
1541 2 15.3629 22.2488 14.8384
450 1 1.5253 9.61946 1.44537
1643 2 15.2317 8.78515 2.71271
202 1 2.13206 10.0589 2.2364
503 1 14.5168 8.74988 2.02516
1687 2 3.17955 -3.4287 15.5001
1726 2 16.8939 9.72637 1.65898
1821 2 4.22424 -3.52155 2.83275
65 1 3.55469 8.81786 2.14356
536 1 4.88083 8.69203 1.83101
910 1 5.22683 9.17111 15.6852
1246 2 6.39801 9.63905 14.9883
14 1 -6.77246 -3.88398 2.83352
519 1 8.22304 8.67857 2.145
1513 2 8.5992 9.56268 2.14176
1842 2 7.32458 22.558 14.9263
525 1 7.27266 9.06755 15.6727
963 1 9.40443 9.54812 14.7138
1568 2 9.37085 8.94886 -10.1673
1037 2 -3.53201 -3.01925 15.6344
836 1 10.1457 -3.68125 2.32836
673 1 10.9197 9.86222 14.5352
820 1 11.4868 9.96885 15.5215
545 1 11.2492 -4.00475 2.52628
156 1 12.6059 9.30697 2.11144
1754 2 12.9733 9.83028 2.79815
794 1 11.6 9.2104 14.4531
599 1 1.42692 10.638 1.83333
145 1 13.7729 11.3062 2.07272
1991 2 14.5673 11.0118 15.7234
958 1 15.5452 -1.97683 2.42942
720 1 2.39002 10.9229 1.49971
1342 2 3.7735 11.3456 15.7338
409 1 3.77568 11.1683 14.7757
38 1 16.1593 10.3468 14.9113
111 1 4.69426 -1.57161 1.74775
143 1 -8.26154 -2.64316 1.50824
854 1 5.74298 -2.77505 1.89319
1763 2 5.37098 11.1917 2.51208
1139 2 -7.14634 11.0712 14.4732
1396 2 5.93885 10.4484 15.7311
1468 2 20.0003 -2.46983 2.37149
706 1 6.78616 11.2849 14.8811
487 1 7.85647 -1.72327 14.6998
1134 2 -4.04792 10.3298 14.6751
1675 2 9.63466 -1.6038 2.4818
1582 2 8.86981 11.3051 1.52919
1779 2 10.1037 -2.36992 14.67
1215 2 10.6528 10.1802 2.46436
102 1 10.8014 -1.50607 2.6329
1467 2 -0.1483 10.2511 14.9443
210 1 -1.35376 10.9152 2.57988
1479 2 -0.646609 11.2225 2.1528
1030 2 0.431658 -0.120355 15.1834
507 1 0.149139 -0.809235 1.65548
66 1 14.8475 24.6478 14.8385
1406 2 15.3088 -0.230417 14.5284
1977 2 14.4832 -0.889085 2.84749
612 1 14.6004 12.8602 15.2045
912 1 15.7777 -13.9294 15.2752
359 1 4.0121 12.1414 2.25687
1146 2 3.36773 12.8325 15.5192
1530 2 18.2798 12.1088 2.31177
1335 2 4.6218 -0.0410918 2.78187
1135 2 6.71703 -0.156123 14.9709
496 1 5.87456 -0.954187 1.59687
1577 2 6.27076 -1.10208 2.55687
1448 2 -6.90429 -0.0462427 15.8839
1195 2 7.23496 -0.96332 15.1341
1746 2 8.50429 -1.37343 15.7041
1 1 8.30975 -0.00508949 15.8249
919 1 9.79238 -1.40788 14.4518
349 1 8.79592 -0.598569 2.11505
75 1 9.30439 12.5729 15.8297
649 1 11.3684 -1.30079 14.8844
1544 2 -1.47019 12.4583 2.70437
305 1 -2.59085 -0.655797 1.78832
939 1 12.4296 12.5478 15.2638
1292 2 11.6102 -0.332153 1.68521
352 1 13.0898 1.03301 15.9569
1435 2 1.38653 0.603995 16.243
327 1 13.3803 0.625336 16.8386
380 1 15.4316 0.0429778 3.11935
934 1 1.8837 1.32502 3.56664
1191 2 15.2952 0.493198 3.87306
1407 2 16.9769 0.487681 3.78176
1940 2 3.05063 0.781033 3.24996
1697 2 5.58052 -12.357 3.96423
765 1 4.85456 0.767397 16.2157
1802 2 5.7051 1.29818 -9.80259
1200 2 -6.29107 0.675735 -9.42084
647 1 6.64058 14.1672 4.32894
1589 2 7.63168 14.1425 3.25977
1990 2 8.58386 13.649 16.6168
1182 2 7.68674 13.3393 3.74493
1476 2 -3.05392 13.0568 16.4418
528 1 9.72491 0.984983 -9.4665
1232 2 9.72907 13.5723 4.32382
1093 2 24.0598 0.0862218 16.2546
1027 2 10.6075 0.979464 3.21734
461 1 11.2046 13.5134 4.2064
1368 2 -0.291739 13.028 16.0731
504 1 12.286 0.94822 -9.34463
1464 2 13.5842 2.19609 15.9886
46 1 13.462 1.72521 -9.1458
196 1 28.5358 1.93237 -8.85822
1393 2 14.4964 2.00829 4.0207
321 1 15.2277 2.68036 16.5711
376 1 3.18066 2.63263 3.98288
636 1 3.63467 2.66209 15.9125
178 1 4.16985 2.33642 16.7144
948 1 16.2869 14.722 16.4776
1784 2 17.0026 1.6612 -8.72113
1825 2 4.85621 2.79961 17.2657
29 1 4.74949 2.7264 2.99537
253 1 -8.14279 -11.3505 16.6177
469 1 5.64178 15.214 3.72735
589 1 6.60103 15.1529 3.63292
665 1 -5.38168 15.2126 3.48828
798 1 8.63826 2.46451 3.14415
437 1 8.4661 1.50262 16.282
648 1 9.58567 15.4205 16.0504
1235 2 -3.8377 15.079 4.1098
685 1 23.6328 2.23111 15.9175
355 1 -2.29333 2.87868 4.19304
1187 2 11.4531 1.45232 3.02708
1514 2 -2.84874 1.85648 16.5933
815 1 11.2362 15.0214 3.79688
1318 2 -0.100472 2.86466 3.09725
1155 2 -0.451594 1.87112 3.73956
295 1 -0.0962853 2.69578 4.0982
1140 2 11.8415 2.47377 -9.68997
1308 2 -1.24671 15.7404 4.25823
1728 2 1.42952 3.12077 2.89511
20 1 0.8639 3.33441 3.63192
530 1 13.8043 4.22712 4.28109
1766 2 2.48615 16.5432 3.93402
94 1 2.95097 -9.67056 3.1429
1265 2 4.11949 3.54439 3.06065
333 1 16.8153 16.3943 4.09861
27 1 18.0299 -9.3843 17.2846
990 1 6.91096 3.04355 -9.39451
23 1 6.60738 3.86176 3.04535
1776 2 18.7955 16.0375 3.24769
1556 2 6.99941 3.81825 4.06396
1941 2 5.99248 -9.06574 3.85226
1506 2 7.8044 16.2132 3.81557
887 1 20.963 17.1105 4.14974
772 1 8.08216 4.1576 3.1701
19 1 9.84006 16.3219 3.83335
541 1 -3.07319 -8.70768 3.49743
1888 2 21.8501 3.50311 3.69082
613 1 10.7099 3.62407 3.32899
696 1 11.955 3.49803 3.55587
555 1 -0.260404 4.14636 4.03633
1500 2 0.0985847 17.7448 3.28103
260 1 0.744654 5.21042 16.7979
1498 2 14.1515 4.53515 3.28244
1365 2 -11.574 4.93734 17.3293
1128 2 2.5375 5.29812 17.1412
1895 2 15.6813 4.56648 16.2128
755 1 1.66595 5.49709 3.62348
325 1 2.84497 4.44284 4.2232
1518 2 16.9262 18.0267 16.773
859 1 5.75446 4.48412 2.96296
795 1 5.19892 5.41023 16.3228
1612 2 -8.12554 17.4474 3.61894
1862 2 18.3413 18.2497 4.25079
125 1 6.14002 4.83656 17.1142
1540 2 -5.02617 5.24807 4.01444
602 1 7.33589 4.7328 3.54968
1760 2 8.73704 -8.38562 16.9036
342 1 9.8379 5.29399 2.95915
1923 2 -1.62997 4.47734 3.15126
626 1 11.0281 5.1554 3.78835
607 1 12.9849 18.6987 -9.55083
603 1 -0.930092 5.23255 16.5941
508 1 11.746 17.5756 4.14876
1398 2 0.0484495 6.49513 2.93395
1685 2 0.329184 6.49044 17.1159
557 1 0.946061 19.1845 16.4427
1098 2 2.84604 6.73819 3.24016
818 1 -11.5374 6.80195 4.11956
1193 2 1.85858 6.44801 3.24814
635 1 2.49739 6.44875 4.15958
109 1 3.10792 5.89737 16.5124
1347 2 3.82621 -6.24642 3.9103
1183 2 -8.75137 -7.07268 3.6543
1771 2 4.53845 6.76636 16.0793
1620 2 4.827 6.69615 4.17884
1837 2 18.4237 -6.30634 3.34272
281 1 5.86819 5.93708 3.90818
42 1 6.61805 19.5621 3.14999
789 1 7.17893 6.25992 3.90184
578 1 -4.66079 32.9205 3.08634
870 1 8.2356 6.05579 3.70253
218 1 -4.00996 7.03204 17.0636
1202 2 9.39 5.87786 -9.26731
403 1 9.93986 7.2205 3.51824
1853 2 -1.60462 5.96362 3.32568
16 1 -2.7082 6.16316 3.77793
91 1 -1.7518 6.67314 3.84956
1231 2 -0.756918 6.60338 16.7757
918 1 12.3316 -5.78877 3.02992
730 1 13.9367 8.58243 16.3779
1041 2 13.5413 -5.45341 3.59458
746 1 2.75456 7.68973 3.56815
458 1 1.73304 7.47141 3.19639
1175 2 3.93474 -4.43622 3.48361
597 1 18.3849 7.64678 3.66262
1461 2 4.36362 7.69258 3.91517
130 1 4.89777 8.42264 3.55252
421 1 6.78181 7.27124 3.97775
924 1 -5.91834 8.16889 16.2343
370 1 6.07354 20.6614 3.11963
486 1 7.32453 8.19828 4.22397
424 1 8.01608 20.9641 2.92956
866 1 7.69507 -5.72279 3.75889
302 1 21.7459 -5.04187 3.70019
1474 2 10.7278 -5.21809 3.94006
1503 2 10.1564 8.09415 3.082
956 1 -1.64522 -5.2045 16.0217
1828 2 -1.25526 7.47761 3.71843
898 1 12.2963 8.20439 16.5161
806 1 13.7466 9.63281 3.63274
1237 2 1.72294 8.86075 17.1312
12 1 14.6798 9.68036 3.09205
938 1 14.488 -2.89313 4.20147
1271 2 15.2943 -3.39449 16.8528
1854 2 3.47727 -3.56276 3.51563
1993 2 4.53707 9.60976 16.9619
265 1 6.76368 10.0008 3.27735
1542 2 5.84774 10.0598 3.60607
283 1 -6.55363 -3.81507 -9.18807
600 1 -5.34971 10.0981 16.7157
1741 2 20.3816 9.10902 16.812
1095 2 -4.66141 9.45863 17.3193
959 1 -4.81984 -4.122 16.2779
1456 2 8.48188 9.86251 3.30224
1420 2 22.4383 -3.32742 16.547
1188 2 -3.84686 8.78746 3.87852
1928 2 11.3309 9.98524 16.6551
1801 2 10.3639 9.48484 4.1725
249 1 11.063 8.80802 3.7072
1114 2 10.4122 9.58066 16.2234
378 1 -0.984711 9.19158 3.09407
1805 2 -0.0155891 8.85487 3.36079
489 1 -0.259948 22.6154 16.8097
1025 2 0.0209904 -2.14328 15.9304
131 1 0.66714 10.5796 3.96015
1935 2 15.6527 11.3229 4.25423
1615 2 2.8077 10.2701 3.01348
452 1 3.62275 10.7683 3.69533
1488 2 2.9514 -2.66802 -8.94221
303 1 16.9935 -2.59931 2.92622
1097 2 4.55144 -1.85251 3.35778
120 1 4.98857 -2.52953 2.88932
1400 2 5.60038 11.1025 3.46902
388 1 4.94313 23.7599 -8.91131
1185 2 -5.81079 10.8899 3.91959
937 1 -6.42315 11.1688 16.2497
1978 2 5.86348 -2.12072 4.29178
1571 2 7.64518 11.0384 16.0894
628 1 8.47968 10.5595 17.2377
432 1 8.00758 -1.47839 3.77329
884 1 10.0913 -2.21598 3.1154
1031 2 22.0162 10.7791 -9.76723
1268 2 -3.22444 10.7633 4.03945
1214 2 10.907 -2.20848 3.8153
1944 2 12.2 10.3447 -9.82105
313 1 13.1785 12.0174 2.89799
1493 2 14.0137 11.6173 16.4558
470 1 13.6581 -0.0638681 16.1271
36 1 0.550181 12.3554 4.2863
2000 2 2.66387 -1.15969 3.42555
1813 2 2.28412 -0.5275 4.04873
630 1 1.44662 12.7402 3.74029
1361 2 16.4378 12.7825 3.44924
1907 2 16.6497 11.7566 3.77161
315 1 5.16437 -0.323723 16.777
1062 2 17.5605 12.0802 3.27322
966 1 7.03046 12.6398 -8.77535
1831 2 6.06476 12.1954 3.46875
745 1 19.7415 11.6952 4.0505
1573 2 6.99934 -0.0270335 2.9297
455 1 7.46462 12.0826 3.12639
252 1 8.1453 -0.494808 3.92721
1735 2 9.11763 11.8473 16.5201
807 1 10.0012 11.9159 16.8258
1512 2 -3.99868 -0.139186 3.67719
1562 2 10.4317 12.4066 2.89522
1543 2 11.171 24.7683 3.83794
1605 2 -1.04044 25.7916 3.80419
1312 2 11.9822 11.6564 3.1333
1385 2 12.8408 11.6004 3.69475
1849 2 13.585 13.7192 17.9308
28 1 1.24823 1.10745 4.38627
1666 2 14.1766 1.21525 5.63327
1300 2 1.17815 13.094 4.58129
1447 2 15.3117 14.0882 4.76539
709 1 15.3078 13.4982 18.5253
692 1 3.19037 0.930486 4.44978
860 1 4.05429 1.06558 -8.0759
1422 2 3.70885 -12.8181 4.9118
1150 2 -9.76103 0.928562 5.51997
1436 2 18.043 0.137626 5.15102
1682 2 4.97538 1.24234 5.61189
1482 2 4.78819 1.03944 17.3963
1162 2 -7.11667 14.3393 17.88
70 1 6.1887 13.0014 5.08857
1924 2 20.5794 0.119988 5.53678
526 1 8.37408 1.34384 17.3945
1071 2 7.43178 13.6274 4.55601
1953 2 -4.62248 0.230753 17.9425
684 1 -5.11249 14.1564 5.39029
551 1 9.17152 14.1609 4.73584
1526 2 -3.63457 13.3746 5.34396
1816 2 10.2161 14.2042 5.73114
293 1 11.2417 1.023 5.22921
1186 2 -15.5194 0.999013 4.48068
777 1 10.4943 13.4153 5.22768
1829 2 -1.0812 1.40231 4.59957
1492 2 25.5826 0.186286 4.59483
1648 2 12.6373 13.0079 5.66039
495 1 -0.330026 1.12579 -8.08681
1652 2 0.776055 15.0066 4.81496
1596 2 0.128676 2.14696 5.67874
1863 2 14.6964 1.84736 -7.93041
1933 2 14.9525 2.69732 -8.47029
617 1 2.65376 1.97884 -7.55229
67 1 3.46978 -10.7997 4.98784
587 1 17.1366 14.7987 5.50607
565 1 4.19843 2.7505 4.98919
1522 2 5.01415 15.1057 -7.93927
567 1 -5.78824 1.95488 -8.58732
979 1 6.39397 2.32981 5.02134
340 1 6.82108 14.4506 5.32051
1824 2 -5.40803 15.3507 5.3212
414 1 8.02905 2.5331 17.4404
1759 2 8.82701 15.3391 5.10622
1364 2 9.99765 2.33496 4.51369
446 1 -3.39204 2.06292 18.6245
22 1 10.6409 14.8554 17.956
1100 2 11.5937 15.1531 18.3993
1576 2 -11.5754 3.39521 5.09145
1158 2 0.317796 16.7413 4.89353
93 1 -12.2759 3.03725 5.43239
1102 2 1.21919 4.28286 -7.75923
1525 2 15.7611 2.96662 5.08955
290 1 3.6362 3.56845 5.376
490 1 5.69536 17.2649 -7.99446
40 1 5.53164 2.99101 5.2818
1371 2 4.68293 16.6161 5.30224
1124 2 6.02473 2.93356 4.4496
1659 2 6.69659 30.2342 4.95079
337 1 7.11527 2.95747 4.70353
181 1 6.6114 3.08749 5.60502
491 1 -4.78836 17.2804 5.22653
506 1 7.45655 3.70356 18.5378
1762 2 8.56236 3.43854 4.72692
703 1 9.88302 3.67811 17.6487
1340 2 -2.99897 3.02078 5.20149
11 1 10.4378 4.19263 -7.66008
1887 2 -1.9944 15.9345 5.09833
1339 2 10.9874 16.7842 4.44028
767 1 -0.175665 16.095 -7.28607
1245 2 11.7256 3.58067 5.2079
1478 2 0.5005 5.14944 5.35768
1026 2 13.1437 -8.06785 4.58951
1208 2 15.2824 4.4194 5.7721
863 1 1.71234 5.07021 18.2809
880 1 16.5528 -7.56113 17.5122
425 1 16.8671 4.34134 4.53688
637 1 4.89041 4.54963 17.5961
1992 2 -8.50049 4.89388 5.40732
440 1 6.84162 5.1254 5.08088
1223 2 19.0634 5.22054 5.55308
977 1 7.9279 5.27144 5.50229
245 1 -3.98824 5.50822 5.55486
1702 2 8.846 5.46674 4.42519
893 1 9.46708 -8.31377 4.86671
629 1 10.411 4.72758 17.5048
1698 2 10.5666 5.71765 4.67143
1156 2 10.87 -7.79149 5.38692
106 1 11.6046 4.51565 -7.7361
1304 2 11.6867 5.50068 4.67516
711 1 12.4559 5.33034 5.19042
540 1 12.54 4.34867 5.30826
1120 2 13.1011 19.0765 5.20667
39 1 13.9155 5.8462 4.66074
1586 2 1.33071 6.84588 5.7771
1617 2 1.83225 19.942 4.90813
362 1 2.66134 18.9849 4.95595
771 1 3.42332 -7.13371 5.49707
419 1 2.91625 6.92224 5.27191
1036 2 3.90027 -6.25458 5.56957
797 1 5.6202 5.82953 5.04369
187 1 4.97942 6.68452 18.1633
825 1 4.34249 5.97557 4.93601
661 1 5.80403 7.07341 4.4396
690 1 20.1302 19.9655 4.78673
538 1 -6.61295 6.60479 5.27
1718 2 6.53473 6.01847 4.56076
533 1 7.31273 6.52036 -7.2425
1065 2 21.2147 -6.50599 17.6139
299 1 8.26639 19.4265 5.5952
1674 2 7.54864 5.7909 4.84293
1181 2 -3.40593 6.39797 4.77627
115 1 9.42197 -6.10496 5.47231
908 1 -2.98971 -6.93846 5.75176
731 1 10.3866 7.07699 17.4493
638 1 10.7742 -6.20379 5.39278
1301 2 11.5445 6.34008 18.055
687 1 12.0043 7.01496 17.5186
77 1 -0.563477 -7.15634 4.40381
1564 2 13.8877 7.28323 17.632
1057 2 13.9238 -4.64464 4.75051
1775 2 0.116963 7.42872 5.43439
668 1 2.4088 -5.47926 17.5346
1219 2 1.59418 7.85324 -7.58358
246 1 1.93613 8.63428 18.3449
60 1 2.95581 8.60286 18.4273
1635 2 16.251 -5.19068 17.867
1876 2 -8.75685 7.66871 4.79625
1939 2 16.9278 8.39921 5.58516
1569 2 18.6497 7.57548 5.55782
1043 2 5.13096 8.02231 17.6655
1028 2 4.59947 7.60617 5.74932
554 1 19.6928 -5.12423 18.5311
1630 2 6.14231 7.93732 4.5976
1172 2 20.3359 8.46677 18.3224
1363 2 8.1803 7.5537 5.17203
197 1 -4.61997 8.43456 4.39745
61 1 8.33517 8.64721 5.43312
1591 2 9.10576 7.84615 17.7447
1859 2 11.184 7.56166 4.75268
1225 2 -1.7007 8.14006 5.42671
1715 2 10.1814 8.00627 4.68395
1077 2 10.3753 8.53262 5.69436
758 1 -0.0249154 8.34917 18.2448
1807 2 12.0343 8.0929 4.69595
72 1 -0.00555176 7.80936 -8.62822
1545 2 12.2178 7.27325 5.44789
223 1 1.03317 -3.62291 -8.36782
714 1 2.81984 9.51678 5.76278
534 1 2.2491 9.53638 4.77012
1913 2 2.85108 8.69756 17.4617
868 1 1.51627 9.80537 -7.57253
1089 2 16.5909 -3.47771 17.486
962 1 17.2874 9.49896 5.25217
1133 2 4.43581 8.73482 17.5081
1636 2 4.8494 8.68395 5.61069
837 1 5.44259 -3.72965 4.74597
1846 2 -6.61606 10.0011 4.44718
786 1 7.05714 9.03189 4.70867
1633 2 6.68276 9.73413 18.5041
1299 2 7.2822 10.1097 4.5963
1349 2 8.63681 9.64104 5.47812
191 1 9.26039 -2.97951 4.48804
408 1 9.20929 8.89525 5.758
500 1 9.60817 -3.86679 17.8182
1494 2 10.8722 8.69483 17.6012
1538 2 11.0945 9.96414 17.6172
427 1 10.7616 9.57563 5.49847
1536 2 12.9464 8.76969 4.44651
1642 2 11.8095 -3.81098 17.4313
1691 2 -0.851121 9.81618 31.4169
791 1 -0.0893316 22.7573 4.73912
715 1 -1.23786 -4.05616 18.3505
1323 2 0.622089 11.1787 18.2849
754 1 13.0541 10.9437 4.63414
259 1 27.3639 -2.04943 4.6531
838 1 15.326 10.5659 4.87593
524 1 2.01916 -1.67155 18.4058
1527 2 3.27164 -2.34514 4.92241
1996 2 3.00306 11.2026 -7.30582
1930 2 16.9261 -1.59757 -8.16154
1275 2 4.20304 10.3847 4.44525
1599 2 5.52253 -2.72868 4.90795
1321 2 4.79877 10.5926 5.49248
1508 2 -7.93704 11.3326 -8.23775
1948 2 6.91642 -1.8483 4.75407
577 1 -6.73253 10.6034 5.39619
743 1 -5.05408 24.0708 17.8341
1055 2 -4.86242 -2.54972 5.5184
989 1 7.30994 -1.60651 5.65721
742 1 9.0257 -1.54118 4.81227
724 1 9.07305 10.7654 5.52632
1733 2 -3.01207 -2.83769 5.24308
1194 2 -2.62438 10.8775 4.73314
87 1 10.733 -1.54292 5.58117
395 1 11.3661 -14.9045 4.85145
517 1 -1.90245 -2.52798 -7.38446
1731 2 -0.132538 -2.5892 18.5715
49 1 24.978 23.1136 4.39881
1040 2 -0.79427 -1.91845 5.14424
1798 2 14.1137 24.9711 5.22744
803 1 1.8118 -0.437102 18.2268
1894 2 2.64836 -0.987446 -8.14305
1819 2 1.56259 -0.951152 4.41244
973 1 15.6434 -0.0401381 17.8378
700 1 16.6381 12.2022 4.65377
605 1 3.44855 -14.0545 5.63793
483 1 4.50969 -0.0336062 17.4114
1505 2 18.3037 -0.696671 -8.26696
601 1 4.44356 12.3111 5.20025
63 1 5.01621 11.7017 -7.33871
37 1 6.85387 -13.7435 18.1729
231 1 5.98851 11.678 5.01602
1855 2 7.86701 12.105 18.2581
1613 2 9.40307 12.4945 4.56083
760 1 8.94179 12.6859 5.62953
1241 2 11.0741 -0.818223 17.8048
762 1 -2.52491 -0.195499 4.35347
44 1 11.4744 12.8848 18.1422
1869 2 10.1509 12.426 5.14453
55 1 12.0809 11.8639 4.49356
1946 2 -0.191757 25.203 4.94102
1713 2 -14.1965 -1.06869 5.53247
124 1 1.2958 0.409118 5.97662
1910 2 1.43495 1.14076 6.83161
681 1 13.1177 0.807688 5.9345
270 1 13.449 0.873187 7.14398
639 1 15.6852 14.0002 6.45243
1958 2 1.98056 13.2068 6.65169
1029 2 3.97605 13.7841 -7.07214
444 1 4.27932 1.13488 6.99454
571 1 16.5842 0.131917 7.05007
186 1 4.53349 0.35195 6.64968
358 1 18.7238 26.4218 -7.01783
1213 2 5.26307 0.675536 6.95135
1465 2 6.6615 13.403 18.885
1867 2 6.61337 0.900392 6.6581
1056 2 8.62056 26.7506 5.83694
1427 2 7.75655 0.315274 19.6517
844 1 -3.29011 0.602251 6.26413
927 1 -4.26082 13.9484 6.88138
214 1 -3.06601 13.229 7.1723
1003 2 -2.57506 0.952855 6.86117
890 1 -1.58284 13.8851 6.64115
1947 2 11.8717 13.778 -7.18892
1968 2 25.525 13.9328 6.71762
669 1 12.1748 0.03316 6.77591
778 1 0.663347 1.90351 7.07892
1963 2 1.2149 2.42788 6.05434
1809 2 13.1655 2.63698 6.67296
1962 2 1.91836 14.5673 6.15625
254 1 15.4525 2.33586 6.43518
1959 2 3.20873 2.74627 5.81931
1706 2 3.50634 1.79086 6.14825
1806 2 3.92078 2.61247 7.02169
1240 2 4.11536 2.72801 6.05645
1689 2 5.10238 15.6519 -7.01364
396 1 5.01969 15.5783 7.00422
13 1 4.73379 14.7783 -6.52924
123 1 6.9463 2.14399 6.16873
1005 2 5.77899 1.76517 5.91826
144 1 -6.44412 2.37158 -5.94183
117 1 8.45491 15.3999 6.01431
1350 2 7.77153 2.55901 6.67132
867 1 7.46263 1.58262 6.86136
324 1 8.65011 2.06971 -6.03324
1107 2 9.56102 1.73572 6.54159
596 1 9.32829 2.85996 19.6196
1857 2 -1.5103 14.9612 6.83493
257 1 -2.5503 15.4697 5.86614
1489 2 11.1083 14.5977 6.06359
1384 2 10.3207 15.0866 7.01326
1267 2 11.8669 15.8488 -6.84629
1430 2 12.3475 1.88689 -6.89668
1227 2 0.209563 3.93501 5.87445
1786 2 1.06442 3.66385 6.02294
129 1 0.423931 3.76336 -6.29421
1781 2 2.1383 2.912 -7.20573
368 1 2.51222 3.67839 6.5522
735 1 1.44998 16.4001 6.86037
744 1 3.95994 4.0197 7.16728
1649 2 3.58002 3.56538 6.3377
404 1 4.02842 17.2954 6.05384
95 1 4.62301 16.5822 6.36882
1274 2 18.4063 3.63642 6.02312
1921 2 -7.07318 2.97084 6.51332
614 1 -6.00711 3.44367 6.3968
1797 2 7.23258 4.24607 6.93766
121 1 -4.32068 16.4955 -7.12263
1374 2 -3.10053 3.56822 6.03057
274 1 8.99643 4.32853 6.98364
204 1 10.3471 4.31421 -6.47742
4 1 11.328 16.1959 6.76456
347 1 11.1967 3.76025 5.88911
566 1 -0.776649 3.82648 -6.66734
1429 2 -0.769182 2.90441 20.0734