2000
 Atoms. Timestep: 22000
1 8.30975 12.9949 2.82489
1 3.13619 0.987337 10.1932
1 6.11387 2.83776 12.2054
1 11.328 3.19587 6.76456
1 12.1585 0.0792295 11.7292
1 4.83674 0.0751571 7.62857
1 2.9344 3.73703 9.84813
1 8.04213 8.17162 9.80398
1 6.66207 4.28151 7.6396
1 4.87863 7.54523 2.53087
1 10.4378 4.19263 5.33992
1 1.6798 9.68036 3.09205
1 4.73379 1.77829 6.47076
1 6.22754 9.11602 2.83352
1 6.18268 4.38645 6.78798
1 10.2918 6.16316 3.77793
1 12.5177 9.88368 10.6778
1 6.40583 6.02041 12.0846
1 9.84006 3.32188 3.83335
1 0.8639 3.33441 3.63192
1 10.0589 3.90969 10.2363
1 10.6409 1.85542 4.95604
1 6.60738 3.86176 3.04535
1 0.535622 12.8307 6.08128
1 8.55559 9.15613 9.78233
1 6.73695 3.89397 11.8877
1 5.02989 3.6157 4.28464
1 1.24823 1.10745 4.38627
1 4.74949 2.7264 2.99537
1 3.77358 11.5267 8.16606
1 12.8846 5.92174 9.213
1 4.93476 10.771 8.28828
1 7.41997 12.49 7.16634
1 12.1028 10.1184 1.38038
1 2.86573 1.63604 1.53059
1 0.550181 12.3554 4.2863
1 6.85387 12.2565 5.1729
1 3.15934 10.3468 1.91128
1 0.915532 5.8462 4.66074
1 5.53164 2.99101 5.2818
1 2.87955 8.08201 2.03136
1 6.61805 6.56207 3.14999
1 5.18653 7.68693 10.1279
1 11.4744 12.8848 5.14216
1 2.74713 8.66932 0.779108
1 0.461977 1.72521 3.8542
1 2.28203 1.32058 2.25177
1 10.479 5.8892 9.57628
1 11.978 10.1136 4.39881
1 3.78572 7.20154 1.70576
1 8.62022 2.70267 8.47238
1 2.18649 3.28225 8.74202
1 11.2762 10.7996 7.92278
1 2.14296 5.18112 2.65756
1 12.0809 11.8639 4.49356
1 12.3545 2.04198 2.70177
1 1.02299 9.9223 2.384
1 10.6397 8.46052 1.13159
1 2.13573 1.79618 7.36665
1 2.95581 8.60286 5.42732
1 8.33517 8.64721 5.43312
1 6.3377 8.03598 10.1792
1 5.01621 11.7017 5.66129
1 1.10311 1.27626 8.9854
1 3.55469 8.81786 2.14356
1 1.84754 11.6478 1.83846
1 3.46978 2.20031 4.98784
1 0.562241 5.23171 8.49792
1 6.82331 6.53193 11.2372
1 6.1887 0.00138501 5.08857
1 8.73893 5.96816 9.22521
1 12.9944 7.80936 4.37178
1 11.4012 6.72815 2.73659
1 2.22667 0.408464 10.4857
1 9.30439 12.5729 2.82972
1 6.25308 10.0997 7.57594
1 12.4365 5.84366 4.40381
1 4.0359 5.64266 11.6513
1 4.14412 7.1825 7.67258
1 12.4268 9.85167 9.12405
1 3.24138 4.87564 5.8146
1 8.68992 1.7072 1.34497
1 6.63537 8.03084 2.30476
1 8.54071 11.6233 10.0734
1 3.82688 12.69 8.6826
1 12.2478 5.05171 2.61896
1 10.733 11.4571 5.58117
1 8.66868 10.1269 7.25526
1 3.66745 8.4287 12.6383
1 10.9371 3.605 1.86786
1 11.2482 6.67314 3.84956
1 8.17038 7.14122 9.75022
1 0.724076 3.03725 5.43239
1 2.95097 3.32944 3.1429
1 4.62301 3.58217 6.36882
1 10.9336 10.7572 7.04026
1 9.88527 3.96989 11.8539
1 4.39634 1.41914 2.27124
1 9.10332 2.0331 0.441083
1 6.60928 1.09044 0.748685
1 9.81842 11.8427 8.39162
1 10.8014 11.4939 2.6329
1 1.98489 6.25671 5.79094
1 4.30161 10.7935 7.63732
1 9.72948 1.89291 11.6341
1 11.6046 4.51565 5.2639
1 5.42371 1.27438 8.92486
1 7.93225 12.4661 1.25261
1 3.10792 5.89737 3.5124
1 8.2361 12.8901 0.291473
1 4.69426 11.4284 1.74775
1 11.1385 4.00303 7.26824
1 6.14576 8.90852 1.23323
1 1.66879 6.91385 11.636
1 9.42197 6.89504 5.47231
1 6.31092 12.7155 8.84097
1 8.45491 2.39986 6.01431
1 3.13646 6.3675 1.59513
1 12.3265 6.63435 8.05782
1 4.98857 10.4705 2.88932
1 8.67932 3.49547 5.87737
1 2.87096 2.68157 10.0951
1 6.9463 2.14399 6.16873
1 1.2958 0.409118 5.97662
1 6.14002 4.83656 4.1142
1 3.82139 7.79873 11.2278
1 8.99042 11.9001 6.67217
1 6.10082 5.71776 0.309598
1 0.423931 3.76336 6.70579
1 4.89777 8.42264 3.55252
1 0.66714 10.5796 3.96015
1 7.96995 7.4323 0.0782274
1 8.78816 8.47737 8.09847
1 0.840026 12.8858 10.7416
1 0.982362 5.03611 11.586
1 12.3014 5.23077 9.97495
1 4.87921 11.7141 9.7904
1 7.16549 6.95245 8.31859
1 11.5976 3.06468 8.43796
1 0.406859 8.8107 2.45658
1 4.04438 11.2928 0.952201
1 6.26483 9.12659 9.36435
1 4.73846 10.3568 1.50824
1 6.55588 2.37158 7.05817
1 0.772936 11.3062 2.07272
1 11.3859 4.70211 1.28808
1 11.5982 4.07825 9.2592
1 1.68347 8.51969 11.7195
1 1.83959 12.3549 10.0683
1 5.84244 11.3411 12.7357
1 0.805685 7.17648 7.70201
1 7.45116 0.531099 9.63696
1 11.1602 4.52422 10.04
1 11.7012 8.24509 9.79948
1 9.35447 5.65573 0.281878
1 12.6059 9.30697 2.11144
1 0.141444 12.4293 7.86655
1 6.61805 4.5831 9.98383
1 0.737539 10.887 12.006
1 7.3622 3.7167 1.3329
1 9.9475 5.00196 5.78241
1 2.21959 9.97625 8.3147
1 5.28382 9.72227 12.1301
1 2.75411 3.69995 11.9526
1 8.10801 6.82868 8.87234
1 11.8035 11.6303 8.73222
1 4.08613 12.4237 6.27649
1 8.75132 9.17406 8.66308
1 11.8853 6.17922 12.5795
1 2.04941 2.19446 10.1097
1 12.6631 1.58417 7.54234
1 6.96055 3.62108 2.23859
1 10.3171 5.82708 12.8144
1 1.0592 7.70598 9.35788
1 9.35534 5.85044 10.6557
1 11.8981 5.81507 7.69614
1 8.01525 4.33408 6.23849
1 4.16985 2.33642 3.71442
1 4.9462 11.5059 12.5893
1 3.16267 6.75703 6.3879
1 6.6114 3.08749 5.60502
1 10.6433 2.98531 12.5351
1 12.9956 12.0986 0.692872
1 4.70913 6.05089 6.84331
1 0.0239586 5.8479 11.5004
1 4.53349 0.35195 6.64968
1 4.97942 6.68452 5.16329
1 1.90515 12.7055 12.3224
1 3.68381 1.49984 9.60723
1 9.57741 1.32907 1.81513
1 9.26039 10.0205 4.48804
1 10.9657 11.8526 6.55045
1 2.04029 10.7764 9.13469
1 11.7373 10.5074 8.8998
1 1.88798 6.32892 12.3586
1 2.53584 1.93237 4.14178
1 8.38003 8.43456 4.39745
1 6.52674 7.39051 7.20119
1 1.94822 4.94668 0.226942
1 12.8224 2.11909 11.244
1 3.2542 6.65237 7.51242
1 2.13206 10.0589 2.2364
1 5.00728 6.71282 7.67881
1 10.3471 4.31421 6.52258
1 9.36886 0.627402 12.6521
1 7.07404 3.12831 11.356
1 0.0592643 12.4768 11.0347
1 8.38434 5.76625 0.312913
1 6.79311 10.5024 0.196862
1 11.6462 10.9152 2.57988
1 9.82366 4.674 0.296813
1 5.83006 3.50347 0.620934
1 9.62684 4.71998 8.91161
1 9.93399 0.229027 7.1723
1 7.11503 6.44498 1.48409
1 3.53905 3.12829 9.24296
1 4.29066 10.7133 10.5635
1 8.99004 7.03204 4.06361
1 6.36419 6.02655 6.07412
1 11.7891 3.02977 11.8182
1 1.12032 12.7256 12.9362
1 5.20228 4.79108 0.579617
1 1.03317 9.37709 4.63218
1 2.63348 5.97937 2.48042
1 10.0833 7.34895 2.44466
1 1.98678 10.6769 12.7087
1 8.70578 2.21041 9.63797
1 8.86414 12.8838 10.809
1 12.9769 10.4557 9.79651
1 1.97362 2.03343 0.252175
1 5.98851 11.678 5.01602
1 1.49188 4.16515 10.4748
1 11.2964 7.08029 9.38969
1 0.422768 9.88788 12.4556
1 9.2419 2.851 11.042
1 5.92753 3.55203 9.22971
1 8.29902 10.7604 6.42666
1 1.24647 8.93869 6.99532
1 1.21158 7.87909 7.10217
1 6.54833 9.07538 6.28597
1 5.50782 11.863 6.59482
1 0.956548 12.5844 11.8017
1 9.78767 5.49696 6.95266
1 9.55788 5.01097 1.26058
1 9.01176 5.50822 5.55486
1 1.93613 8.63428 5.34494
1 2.47878 11.2184 6.59128
1 4.29231 1.33894 8.7044
1 11.063 8.80802 3.7072
1 0.587205 11.8718 6.57008
1 6.3651 8.16414 0.413274
1 8.1453 12.5052 3.92721
1 4.85721 1.64947 3.61772
1 2.4525 2.33586 6.43518
1 6.94177 0.342323 11.0313
1 7.97707 7.04958 11.5981
1 10.4497 2.46972 5.86614
1 11.785 9.94483 0.317356
1 1.36386 10.9506 4.6531
1 0.744654 5.21042 3.79791
1 4.92835 1.35032 12.8789
1 11.5467 4.83643 7.2088
1 12.9963 5.01794 7.75135
1 11.0128 8.01826 7.46951
1 6.76368 10.0008 3.27735
1 8.30325 4.14588 10.0089
1 11.4674 5.35397 11.7127
1 5.62284 4.76092 9.37722
1 5.96855 3.92178 12.6369
1 0.448986 0.873187 7.14398
1 2.37232 3.12549 1.99901
1 3.22229 5.28279 2.10848
1 9.42644 11.3547 9.62398
1 8.99643 4.32853 6.98364
1 2.38427 3.71196 7.88062
1 10.0082 1.82118 9.34653
1 7.66204 9.99266 11.4301
1 9.76379 0.748703 10.6864
1 11.0345 6.19591 1.89164
1 4.38307 8.89034 12.1165
1 5.86819 5.93708 3.90818
1 6.47089 4.35807 0.986848
1 6.44637 9.18493 3.81193
1 10.0258 3.24023 2.81858
1 9.49209 6.73849 9.27234
1 8.23563 7.66666 10.7054
1 3.25293 1.79664 0.578838
1 10.4721 6.64323 8.87466
1 7.00871 8.91394 12.1833
1 3.6362 3.56845 5.376
1 7.43302 12.7006 8.34077
1 5.13446 0.877886 11.8119
1 11.2417 1.023 5.22921
1 6.52304 12.0475 10.1209
1 12.9037 2.69578 4.0982
1 10.9829 7.13592 11.9337
1 7.40426 6.499 9.41161
1 4.52095 10.1764 6.25579
1 8.26639 6.42649 5.5952
1 7.14393 11.2615 10.3106
1 5.64035 2.20809 0.0105735
1 8.74586 7.95813 3.70019
1 3.99353 10.4007 2.92622
1 5.77171 9.86743 5.85184
1 10.4091 12.3442 1.78832
1 9.79284 2.55035 8.82713
1 5.4453 11.3302 8.99509
1 2.49316 10.5412 11.1848
1 9.71828 11.1574 10.5187
1 7.61151 5.68883 7.73862
1 12.8307 4.57955 8.87299
1 5.32885 8.63923 9.92619
1 0.178526 12.0174 2.89799
1 4.87406 3.98324 7.47677
1 5.16437 12.6763 3.77701
1 7.02466 2.07274 1.29938
1 5.44863 2.40421 7.92592
1 5.11385 12.6538 6.30487
1 12.6289 9.08012 5.83912
1 7.54793 3.64179 8.31379
1 2.22766 2.68036 3.57109
1 3.32416 7.17989 12.7565
1 3.43832 10.373 9.69633
1 8.65011 2.06971 6.96676
1 2.84497 4.44284 4.2232
1 7.18259 3.19432 7.4247
1 0.3803 0.625336 3.83861
1 8.49746 0.399584 1.52658
1 7.76141 10.5232 0.417945
1 12.3877 1.26977 11.4041
1 6.20788 7.99542 12.0616
1 8.63293 11.9615 11.2752
1 3.81526 3.3943 4.09861
1 9.02096 2.70956 12.4124
1 0.82343 3.81329 2.8326
1 4.34437 0.806174 10.4039
1 7.11527 2.95747 4.70353
1 7.00361 5.42714 9.39569
1 3.38198 9.41962 6.96249
1 6.82108 1.45059 5.32051
1 8.1669 4.37383 1.59383
1 9.8379 5.29399 2.95915
1 12.3183 4.67918 1.22532
1 6.2673 11.6662 11.8677
1 8.39263 2.51333 10.5379
1 1.49897 7.3867 1.39443
1 11.1967 3.76025 5.88911
1 3.63811 11.53 6.90024
1 8.79592 12.4014 2.11505
1 8.05811 7.75299 6.64898
1 10.497 4.92398 12.192
1 0.0897607 1.03301 2.95692
1 5.63862 11.1231 7.63731
1 6.93091 1.28296 12.398
1 10.7067 2.87868 4.19304
1 9.76408 3.66278 0.0803741
1 4.81393 2.73719 0.609424
1 5.7238 0.421792 5.98217
1 4.0121 12.1414 2.25687
1 6.94911 6.36584 6.94853
1 2.87719 0.828999 9.36043
1 2.66134 5.98492 4.95595
1 5.98832 0.735387 1.43952
1 5.61112 0.581306 12.6379
1 0.741522 4.73722 6.36976
1 5.20132 12.3819 9.08922
1 5.53582 5.66282 9.26896
1 2.51222 3.67839 6.5522
1 3.01551 0.0915979 0.825891
1 6.07354 7.66138 3.11963
1 4.61998 0.390472 12.5839
1 10.3079 2.80542 1.8424
1 8.49478 11.2926 9.1862
1 9.30863 12.5895 9.9912
1 12.3623 11.7708 11.0344
1 3.18066 2.63263 3.98288
1 5.44038 6.52506 6.37122
1 12.0153 9.19158 3.09407
1 9.3753 8.72022 0.329696
1 2.43163 0.0429778 3.11935
1 7.82722 3.07754 2.86309
1 3.42552 3.50887 2.32484
1 0.831412 11.58 0.302674
1 7.71827 1.81193 11.9247
1 8.50855 5.06743 2.72008
1 0.637303 5.05932 12.6259
1 1.40324 6.59879 0.771396
1 4.94313 10.7599 4.08869
1 5.37352 1.6808 1.08269
1 2.58068 2.05809 2.88289
1 11.3066 7.05185 8.19472
1 11.4744 10.8554 1.44045
1 9.27786 7.9387 2.78207
1 8.46654 11.2221 11.9367
1 11.3661 11.0955 4.85145
1 5.01969 2.57833 7.00422
1 6.85635 11.0428 6.42696
1 5.68994 1.33965 2.13627
1 4.12962 6.60185 11.4189
1 6.09166 6.8773 0.311719
1 0.0904239 7.2211 9.79104
1 1.51982 0.322222 7.79724
1 9.93986 7.2205 3.51824
1 4.02842 4.29539 6.05384
1 11.2093 7.84514 12.918
1 1.4277 0.323122 9.86422
1 5.00132 4.09392 1.11697
1 9.20929 8.89525 5.758
1 3.77568 11.1683 1.77571
1 9.53711 11.8414 12.8029
1 3.64508 5.04355 9.8235
1 2.60757 9.90493 11.8888
1 4.18061 2.03159 7.72424
1 8.02905 2.5331 4.44038
1 5.75389 1.56094 12.2704
1 2.31387 6.99716 1.22414
1 2.72208 9.42359 10.8414
1 10.6301 5.11551 8.52563
1 2.91625 6.92224 5.27191
1 6.24272 9.93908 0.895802
1 6.78181 7.27124 3.97775
1 0.971119 11.4227 9.85019
1 1.78137 5.44505 11.9645
1 8.01608 7.96409 2.92956
1 3.86715 4.34134 4.53688
1 1.30482 9.63979 7.72295
1 10.7616 9.57563 5.49847
1 11.9242 3.99865 0.53005
1 7.46183 9.48904 12.8206
1 6.52655 5.00259 2.58932
1 12.6154 0.795824 0.983116
1 8.00758 11.5216 3.77329
1 6.90853 5.06162 12.1293
1 6.02784 3.66697 10.3197
1 10.4039 4.08409 11.0949
1 5.57156 12.1753 10.4586
1 8.4661 1.50262 3.28196
1 4.18563 7.50176 12.2771
1 12.4543 0.639909 10.7173
1 6.84162 5.1254 5.08088
1 2.26224 0.870249 0.993489
1 2.95349 11.3039 9.86821
1 11.6822 6.86401 7.15084
1 4.27932 1.13488 6.99454
1 11.3228 0.126204 0.785413
1 9.60796 2.06292 5.62446
1 3.3729 7.85168 10.0894
1 7.48032 4.52348 2.55127
1 4.59598 11.8396 10.7013
1 1.5253 9.61946 1.44537
1 10.4579 11.3595 7.71641
1 3.62275 10.7683 3.69533
1 4.6594 5.55679 12.4353
1 9.43548 9.5052 8.02987
1 7.46462 12.0826 3.12639
1 5.63512 8.23185 8.97643
1 6.2504 1.092 8.18894
1 1.73304 7.47141 3.19639
1 2.35323 7.20866 5.9509
1 6.28623 2.4403 0.780607
1 11.2046 0.513401 4.2064
1 9.8538 1.97474 1.17639
1 7.34413 7.66748 1.77565
1 5.86293 0.326934 7.7935
1 6.58428 12.9779 6.80717
1 2.75817 10.1874 7.28338
1 1.79645 4.43383 6.71438
1 9.58429 6.81665 0.630122
1 5.64178 2.21402 3.72735
1 0.658139 12.9361 3.12707
1 11.7223 10.0009 11.4992
1 9.99478 9.51738 8.94826
1 10.8183 11.7072 8.7571
1 9.21842 4.34687 5.88959
1 9.94119 7.63979 1.50785
1 3.25021 5.3256 10.8999
1 10.3772 4.11859 9.06355
1 2.92531 2.58374 8.27162
1 1.32487 1.32047 10.8292
1 9.22791 4.85147 8.08434
1 8.75816 10.1457 10.2075
1 0.286811 1.13019 11.8936
1 4.50969 12.9664 4.41141
1 12.6316 11.7101 9.24239
1 2.55686 2.04916 12.1318
1 7.32453 8.19828 4.22397
1 7.85647 11.2767 1.69977
1 9.43682 1.58769 7.50141
1 12.7401 9.61538 3.80966
1 5.69536 4.2649 5.00554
1 8.21164 4.28045 5.22653
1 10.0933 4.25785 2.5215
1 5.03347 11.1573 0.435481
1 7.51531 2.81089 8.75889
1 12.67 1.12579 4.91319
1 5.87456 12.0458 1.59687
1 11.0418 0.477319 11.9583
1 10.1087 0.0468358 11.2079
1 1.38448 1.37591 11.8267
1 9.60817 9.13321 4.81818
1 6.3369 12.9472 0.0851816
1 11.4209 7.93911 8.62261
1 1.51678 8.74988 2.02516
1 12.286 0.94822 3.65537
1 1.44703 2.79394 0.531985
1 7.45655 3.70356 5.53781
1 0.149139 12.1908 1.65548
1 11.746 4.57558 4.14876
1 4.53692 1.8277 11.7906
1 4.30591 7.91372 8.41851
1 6.62149 12.5025 7.79472
1 7.05035 9.56563 0.767424
1 8.66601 5.42545 11.4907
1 0.746795 3.10895 7.59597
1 0.768781 6.7553 11.2426
1 3.68664 4.37682 8.12486
1 11.0976 10.472 5.61554
1 5.52219 2.32437 9.74239
1 8.22304 8.67857 2.145
1 11.6193 5.06119 0.198472
1 2.85227 8.44539 9.49329
1 7.73561 1.37542 1.39041
1 10.8777 6.38678 7.5324
1 2.01916 11.3285 5.40582
1 7.27266 9.06755 2.67265
1 8.37408 1.34384 4.39448
1 8.61405 12.7331 11.7119
1 9.72491 0.984983 3.5335
1 1.86809 8.70052 10.7403
1 0.804281 4.22712 4.28109
1 4.01292 8.18669 1.59119
1 12.1063 9.36246 7.12372
1 7.31273 6.52036 5.7575
1 2.2491 9.53638 4.77012
1 3.14713 5.76791 6.89747
1 4.88083 8.69203 1.83101
1 4.53279 10.8205 9.44116
1 6.38705 6.60479 5.27
1 2.12101 4.28054 8.85277
1 12.54 4.34867 5.30826
1 9.92681 4.29232 3.49743
1 3.85036 8.96116 8.19837
1 0.734267 12.4187 9.97157
1 4.12705 4.85755 10.9734
1 11.2492 8.99525 2.52628
1 7.37982 3.53509 10.1476
1 1.60446 2.64913 7.40407
1 3.72623 4.48056 2.83749
1 1.18017 0.899264 2.11785
1 10.4308 7.35744 7.36799
1 9.17152 1.1609 4.73584
1 4.53941 4.97036 1.43048
1 8.47081 11.5128 7.4759
1 6.69278 7.87577 5.53111
1 12.7396 4.14636 4.03633
1 0.565803 7.61076 6.24341
1 0.946061 6.18449 3.4427
1 4.92385 2.16457 8.8014
1 6.2153 10.7804 8.61454
1 2.15206 9.21982 6.92727
1 12.2423 8.49101 2.41098
1 12.5062 5.55691 8.46472
1 12.7174 6.44678 10.53
1 3.26885 11.8752 12.4196
1 4.19843 2.7505 4.98919
1 12.2234 3.82648 6.33266
1 7.21176 1.95488 4.41268
1 5.72223 12.1056 8.08185
1 12.2523 8.12685 0.72771
1 2.27815 3.07494 12.9775
1 3.58419 0.131917 7.05007
1 7.09359 0.814361 7.52948
1 8.38782 10.2791 12.3397
1 6.53576 2.08337 9.90262
1 3.42463 2.33142 12.6512
1 7.82685 0.527894 10.5221
1 6.26747 10.6034 5.39619
1 8.33921 6.92054 3.08634
1 12.2999 12.7707 0.318955
1 6.54829 4.82744 0.0430887
1 6.29315 2.84629 8.2264
1 10.568 12.5439 8.1091
1 8.44769 0.790376 8.81679
1 3.00866 3.92408 8.97574
1 12.3885 7.07087 0.580461
1 6.55251 4.44301 5.98836
1 4.1366 1.79867 5.50607
1 3.62048 4.19113 1.36911
1 6.60103 2.15291 3.63292
1 4.30481 0.919163 11.3207
1 3.44055 9.29729 9.05565
1 4.67052 7.67441 1.30981
1 7.4864 4.4392 9.40079
1 5.86938 0.0146604 0.924519
1 6.1868 6.9366 10.3909
1 9.32829 2.85996 6.61962
1 5.38491 7.64678 3.66262
1 8.00387 3.70327 11.9532
1 1.42692 10.638 1.83333
1 7.65029 10.0981 3.71566
1 4.44356 12.3111 5.20025
1 7.33589 4.7328 3.54968
1 12.0699 5.23255 3.59414
1 6.89561 1.12602 10.3093
1 3.44855 11.9455 5.63793
1 2.11847 5.99966 1.31184
1 12.9849 5.69874 3.44917
1 8.64624 8.55435 12.7908
1 0.265563 9.35902 1.40384
1 10.8696 10.8218 0.27492
1 5.08613 12.0639 11.7434
1 1.60036 12.8602 2.20448
1 10.7099 3.62407 3.32899
1 6.99289 3.44367 6.3968
1 11.6317 8.74413 0.220581
1 10.8354 2.37236 0.784157
1 2.65376 1.97884 5.44771
1 9.29189 12.7663 6.57664
1 1.32824 3.21123 11.3771
1 6.13115 6.83878 8.40758
1 10.5165 11.0332 12.3175
1 3.07561 10.1536 8.78522
1 4.23465 10.4074 0.455488
1 5.31379 8.71602 6.48785
1 2.31394 6.69921 8.28686
1 11.0281 5.1554 3.78835
1 0.853277 4.40698 7.45194
1 8.47968 10.5595 4.23771
1 10.411 4.72758 4.50481
1 1.44662 12.7402 3.74029
1 8.02547 2.11901 2.39163
1 10.0883 12.1926 0.535534
1 11.1317 9.84423 10.4241
1 8.29567 7.83252 1.0574
1 2.49739 6.44875 4.15958
1 3.63467 2.66209 2.91254
1 4.89041 4.54963 4.59607
1 10.7742 6.79621 5.39278
1 2.68518 1.00018 6.45243
1 6.56022 12.5725 12.1355
1 2.35199 3.28662 10.9382
1 4.58789 11.7245 7.29498
1 10.4942 6.34513 11.2075
1 10.778 0.959715 10.915
1 2.72995 7.7465 0.485471
1 9.10919 6.6917 12.7746
1 6.64058 1.16721 4.32894
1 9.58567 2.42052 3.05043
1 11.3684 11.6992 1.88438
1 12.8253 10.3804 11.8549
1 3.62531 12.0367 0.264939
1 4.50212 4.81527 9.48338
1 11.547 1.46439 12.7004
1 3.10159 10.9219 7.65344
1 4.6025 6.64948 12.2769
1 11.8457 10.2911 7.4104
1 8.1196 5.30314 12.5609
1 3.0403 7.08423 10.6268
1 11.9635 6.04193 9.53505
1 4.9562 12.8249 1.32273
1 5.80403 7.07341 4.4396
1 9.08094 6.83094 11.0855
1 0.850508 12.1845 8.98327
1 1.98492 1.10271 9.77992
1 7.61832 2.21258 3.48828
1 1.37799 11.1699 1.06059
1 9.76145 10.3095 9.92699
1 2.4088 7.52074 4.53463
1 12.1748 0.03316 6.77591
1 4.73734 9.39368 8.45413
1 6.7442 11.2701 7.4259
1 10.6246 1.2745 2.31404
1 10.9197 9.86222 1.53516
1 12.2525 7.28654 11.0479
1 6.86556 7.36772 12.9347
1 1.9473 2.0706 11.377
1 2.76609 5.39854 12.0188
1 3.96101 3.95293 11.4258
1 10.9683 9.39454 6.54433
1 2.89275 8.12101 10.9246
1 0.117688 0.807688 5.9345
1 3.62781 10.5095 6.76674
1 9.56229 8.04235 6.75861
1 7.88751 1.15636 5.39029
1 10.6328 2.23111 2.91746
1 5.96569 2.98883 2.23016
1 12.0043 7.01496 4.51863
1 7.08271 11.3698 0.850032
1 6.34865 8.93751 8.34203
1 7.13017 6.96547 4.78673
1 4.66041 0.537858 1.97466
1 3.19037 0.930486 4.44978
1 11.9479 0.496316 2.72328
1 0.442012 9.87363 8.44641
1 4.15247 12.7883 10.6914
1 11.955 3.49803 3.55587
1 7.71682 9.01366 8.96634
1 12.7129 8.98941 0.0978855
1 6.55475 0.762654 2.57289
1 3.6381 12.2022 4.65377
1 7.32516 4.78013 1.5815
1 12.6128 4.28209 9.75782
1 9.88302 3.67811 4.64874
1 5.82236 9.16498 7.14515
1 9.24047 4.16271 0.893995
1 6.78616 11.2849 1.88112
1 10.2568 3.19095 10.7942
1 7.89465 1.70799 0.451284
1 2.3078 0.498186 5.52534
1 8.92175 7.6012 8.71856
1 12.4559 5.33034 5.19042
1 1.90728 5.26742 10.0846
1 5.05956 1.46852 10.8886
1 2.81984 9.51678 5.76278
1 11.7621 8.94384 5.35052
1 1.87303 8.66267 9.44193
1 5.38612 10.3079 9.07462
1 0.807138 2.14865 12.3338
1 2.11698 11.4855 7.89289
1 2.39002 10.9229 1.49971
1 0.836395 1.5838 9.92795
1 5.49364 5.46024 6.46022
1 1.94407 12.5134 0.379953
1 9.07305 10.7654 5.52632
1 4.03582 5.87807 10.4634
1 9.17388 3.49437 2.48486
1 7.36695 5.96293 11.9602
1 11.8063 5.16233 8.99297
1 12.3447 9.38135 12.1704
1 0.936667 8.58243 3.37788
1 10.3866 7.07699 4.4493
1 5.42407 6.62636 2.40049
1 11.4265 7.47689 0.725694
1 11.3135 11.8248 7.88701
1 1.44998 3.40005 6.86037
1 0.714796 5.96995 0.725958
1 7.12461 5.61961 10.2842
1 1.49057 4.57038 2.4279
1 7.91749 5.24321 8.61429
1 2.54123 6.96458 12.1207
1 2.39856 1.46275 10.6858
1 9.0257 11.4588 4.81227
1 7.94592 11.0708 4.83406
1 3.95994 4.0197 7.16728
1 6.74153 11.6952 4.0505
1 2.75456 7.68973 3.56815
1 9.14898 4.6581 11.2308
1 8.54378 3.59974 1.31823
1 10.4918 8.64452 12.8111
1 8.72126 5.42659 1.21313
1 12.4983 3.66148 8.98542
1 3.85556 2.90011 10.2805
1 3.66477 10.2688 5.81598
1 0.0540596 10.9437 4.63414
1 1.66595 5.49709 3.62348
1 9.99954 9.29719 6.10341
1 12.6251 12.3436 6.31071
1 12.9751 8.34917 5.24477
1 7.42057 4.46561 0.718748
1 8.94179 12.6859 5.62953
1 2.11199 4.75997 11.3119
1 10.4751 12.8045 4.35347
1 1.28262 9.81724 6.43283
1 12.583 8.15903 11.6341
1 4.85456 0.767397 3.21567
1 12.6241 6.22922 1.38418
1 12.8243 3.095 5.71393
1 3.6376 5.94274 9.68158
1 4.32944 8.02234 6.73046
1 6.5028 8.10551 7.96132
1 3.42332 5.86629 5.49707
1 8.08216 4.1576 3.1701
1 8.7922 1.95893 11.3803
1 11.8279 11.9894 9.98531
1 1.3325 9.71176 12.1743
1 7.45692 8.60196 8.04618
1 10.4943 0.415257 5.22768
1 0.663347 1.90351 7.07892
1 1.32685 6.51124 6.9154
1 3.19095 6.9854 9.57464
1 7.77888 6.3802 0.759628
1 4.1733 2.81463 11.1936
1 2.17925 3.95926 2.60039
1 9.39514 7.6798 12.6198
1 7.92881 2.53021 12.7637
1 7.05714 9.03189 4.70867
1 8.92481 3.30568 10.0162
1 11.9325 3.69821 12.6266
1 7.17893 6.25992 3.90184
1 12.0539 7.31983 9.86671
1 12.9107 9.75727 4.73912
1 5.03176 1.97732 1.88527
1 4.05479 0.0394448 0.467161
1 11.6 9.2104 1.45314
1 5.19892 5.41023 3.32284
1 10.6834 9.75337 7.86598
1 5.6202 5.82953 5.04369
1 8.63826 2.46451 3.14415
1 5.83052 8.58101 2.0079
1 5.91098 4.88682 11.9181
1 11.0061 0.469814 7.76871
1 5.14973 3.65125 2.6711
1 1.8118 12.5629 5.22681
1 4.11062 3.45555 1.0934
1 1.31681 10.3429 9.94629
1 0.746607 9.63281 3.63274
1 10.0012 11.9159 3.82578
1 2.73757 11.1853 0.132502
1 6.34269 10.1252 9.76862
1 5.42818 9.34421 0.203051
1 10.4223 9.26941 9.80619
1 3.80542 10.8643 12.4762
1 11.1531 12.026 0.464508
1 3.73827 2.74405 0.661955
1 11.2362 2.02141 3.79688
1 4.88965 0.69017 0.625049
1 11.4831 3.44327 1.21345
1 1.46256 6.80195 4.11956
1 4.19708 9.83502 12.332
1 11.4868 9.96885 2.5215
1 7.58827 9.25117 10.3841
1 1.41111 3.22226 1.85724
1 3.84895 9.23322 6.00638
1 12.4202 6.78366 11.8164
1 4.34249 5.97557 4.93601
1 5.26969 9.29299 1.12768
1 4.6561 5.86477 2.30445
1 1.87788 11.4002 9.7685
1 0.583545 9.71532 5.82823
1 5.3128 7.24817 9.20329
1 10.7441 8.83972 8.50511
1 10.7639 6.6387 6.40582
1 11.9729 12.5584 7.57811
1 11.9743 9.40966 9.98145
1 7.23676 8.32094 10.8608
1 10.1457 9.31875 2.32836
1 5.44259 9.27035 4.74597
1 2.32597 10.5659 4.87593
1 2.13126 8.25895 7.92601
1 4.40357 12.5788 9.86403
1 8.39495 12.0815 12.4502
1 7.97443 12.0715 8.84242
1 3.94703 5.19018 6.45065
1 9.70989 0.602251 6.26413
1 8.76687 6.97825 6.87159
1 9.82369 0.521164 1.32988
1 2.80797 4.8276 10.1642
1 8.06874 3.84411 7.4024
1 7.32028 8.33256 0.713238
1 0.497673 6.43614 6.21074
1 2.74242 0.39452 8.5059
1 12.0919 11.9686 1.14989
1 3.74004 11.573 10.5929
1 5.74298 10.225 1.89319
1 1.26056 8.78612 12.7334
1 2.75311 11.3327 8.65193
1 6.51709 0.800414 9.38552
1 0.160513 1.12969 8.25287
1 5.75446 4.48412 2.96296
1 4.05429 1.06558 4.9241
1 12.191 4.48958 8.09592
1 7.80503 6.1485 11.1547
1 1.71234 5.07021 5.28089
1 6.97225 7.25056 9.89332
1 10.5942 0.997966 1.22679
1 7.69507 7.27721 3.75889
1 7.46263 1.58262 6.86136
1 1.51627 9.80537 5.42747
1 11.5023 9.5754 8.33149
1 8.2356 6.05579 3.70253
1 10.8395 6.8312 0.0417951
1 3.92367 11.5944 9.39696
1 0.489839 7.94866 2.7884
1 0.496669 10.0157 10.66
1 3.47483 10.0805 11.6393
1 6.90543 8.46626 9.0215
1 3.6751 7.67029 2.80582
1 1.4848 12.1163 6.22928
1 8.40815 9.66667 0.142595
1 3.55278 5.43887 4.51219
1 3.27258 1.9062 11.1945
1 7.82297 6.66727 2.18429
1 5.2596 7.57099 8.21871
1 10.0913 10.784 3.1154
1 12.4837 7.85023 9.13348
1 9.90239 10.2162 12.0278
1 7.96304 4.11046 4.14974
1 5.69243 4.30613 8.18073
1 2.40994 12.4387 9.09611
1 11.4172 0.885122 6.64115
1 11.7334 11.1855 0.254755
1 12.9509 3.63525 7.62327
1 9.46708 4.68623 4.86671
1 11.2027 0.468041 10.2449
1 9.20766 0.567224 2.46597
1 7.82373 6.01655 6.84478
1 3.92015 4.1795 9.00731
1 12.2963 8.20439 3.51606
1 9.27122 1.70486 12.4908
1 0.786469 8.87153 9.31374
1 4.93543 5.49697 10.0602
1 7.20421 5.77121 2.33421
1 10.9808 12.4683 12.3386
1 6.08083 12.2774 5.86615
1 4.18342 12.5512 12.3377
1 9.27357 2.58886 7.80297
1 2.61201 10.3526 6.33177
1 10.0103 6.06154 5.75176
1 3.69016 9.499 0.575896
1 5.22683 9.17111 2.6852
1 10.9606 2.55327 10.0626
1 2.77769 12.0706 2.27517
1 1.06471 2.71294 8.88504
1 12.9376 0.201058 12.5643
1 10.3298 9.36405 11.1163
1 10.1765 0.429061 8.27582
1 6.30856 0.931379 11.6329
1 12.3316 7.21123 3.02992
1 9.79238 11.5921 1.45176
1 5.27555 12.7704 0.0136995
1 5.25775 3.05689 12.7548
1 8.38771 11.7123 5.89866
1 9.28249 10.8157 6.89623
1 7.08166 8.16889 3.2343
1 8.61016 7.38866 1.98445
1 8.11862 2.71105 7.56831
1 8.73918 0.948431 6.88138
1 4.5887 9.85439 9.96603
1 1.16982 10.2703 11.34
1 2.92537 3.48218 0.965811
1 0.26159 11.5016 11.3716
1 6.91428 1.79258 2.40659
1 11.0153 0.123668 2.20557
1 1.8837 1.32502 3.56664
1 3.39996 5.88976 0.699203
1 10.9813 3.85701 12.1275
1 6.57685 11.1688 3.24966
1 1.48799 10.1069 4.20147
1 12.4296 12.5478 2.26385
1 3.17075 12.237 6.63184
1 12.6903 3.87222 2.87584
1 2.65731 6.0617 10.0208
1 3.13755 2.39653 2.02205
1 12.3179 1.68291 0.284319
1 12.0923 0.531731 7.61777
1 10.9106 4.23798 0.342624
1 11.0211 3.00323 2.66181
1 3.28687 1.72198 3.47757
1 0.63245 5.84342 10.2505
1 5.53413 5.75763 8.00588
1 11.6443 2.65833 0.0223923
1 9.54221 3.54725 8.62395
1 9.42456 0.16335 0.542582
1 3.14855 9.40118 12.7413
1 5.09753 7.47903 11.9049
1 11.3548 7.7955 3.02171
1 1.63828 7.48094 10.6994
1 2.54522 11.0232 2.42942
1 8.18016 8.878 3.27788
1 1.61746 11.879 11.4396
1 10.4471 2.66094 11.5235
1 4.28738 9.49896 5.25217
1 9.40443 9.54812 1.71376
1 1.74407 6.07029 8.92981
1 0.574858 4.08737 8.42189
1 7.03046 12.6398 4.22465
1 8.56892 5.41209 10.3366
1 5.33373 10.8696 6.19139
1 1.66712 11.8454 12.7615
1 9.51409 7.46938 10.5564
1 3.39379 5.39378 7.94412
1 7.82824 4.98389 11.5764
1 2.64336 12.9599 4.83782
1 9.44557 7.64966 11.534
1 5.6324 10.9719 9.92977
1 12.2174 4.17506 2.10618
1 7.9279 5.27144 5.50229
1 9.43806 11.3838 11.8722
1 6.39397 2.32981 5.02134
1 12.7811 5.57168 0.394552
1 0.189516 8.15144 0.65003
1 8.00995 9.00864 11.3394
1 8.10341 10.6749 8.18008
1 11.0637 1.84485 1.58727
1 6.03849 12.6903 11.2398
1 0.884768 10.9053 8.97627
1 8.37977 4.22355 8.21822
1 3.06124 4.88433 9.08435
1 7.30994 11.3935 5.65721
1 6.91096 3.04355 3.60549
1 9.30925 6.7529 2.8118
1 9.40298 5.32859 9.77684
1 1.16672 3.77053 9.03281
1 9.86756 6.57183 10.1635
1 4.4848 9.20292 6.81984
1 4.80088 11.8535 8.35128
1 9.62263 7.66769 7.84957
1 7.72795 11.1706 11.0636
1 8.80278 12.4339 8.34534
1 4.26474 2.02387 0.207405
2 6.70688 6.30403 7.88261
2 11.7934 10.9884 6.34075
2 10.4249 0.952855 6.86117
2 0.209985 2.46092 0.404294
2 5.77899 1.76517 5.91826
2 6.09801 11.4113 10.806
2 11.4441 5.11301 8.16848
2 5.889 5.06656 1.78849
2 1.38969 10.8988 7.95467
2 12.5324 6.58061 6.21394
2 8.91621 12.0947 9.24758
2 2.28665 10.2894 10.2184
2 5.8532 4.96166 10.8582
2 1.74229 7.36595 7.78108
2 7.25141 12.9712 0.898066
2 0.47017 8.87406 7.58568
2 12.4561 9.14967 1.06854
2 11.5153 0.545486 11.162
2 7.17665 9.65041 8.23092
2 11.8088 6.9867 1.39484
2 6.5357 12.2594 0.769642
2 11.6868 8.83626 6.39304
2 12.0141 5.98604 0.755647
2 2.0751 5.10478 9.16395
2 0.0209904 10.8567 2.93044
2 0.143741 4.93215 4.58951
2 10.6075 0.979464 3.21734
2 4.59947 7.60617 5.74932
2 3.97605 0.784124 5.92786
2 0.431658 12.8796 2.18338
2 9.01621 10.7791 3.23277
2 11.0989 9.01878 7.44872
2 1.72608 7.3402 6.53004
2 7.47539 7.72901 9.1109
2 0.1821 3.08866 10.9649
2 3.90027 6.74542 5.56957
2 9.46799 9.98075 2.63441
2 4.68997 5.02475 2.55835
2 9.09979 2.65793 1.25115
2 12.2057 11.0816 5.14424
2 0.541314 7.54659 3.59458
2 11.7333 6.70776 10.516
2 5.13096 8.02231 4.66545
2 6.98106 7.07725 12.0078
2 11.6383 8.26262 1.58602
2 4.84874 8.34623 11.1482
2 12.4277 11.0267 1.0829
2 4.58256 7.22352 10.9291
2 11.9531 0.0977396 9.462
2 4.39852 8.99409 10.3122
2 11.1208 2.85016 7.72552
2 0.523718 10.2702 1.18449
2 8.76145 7.95192 6.00935
2 4.79534 1.54505 9.6595
2 8.13758 10.4503 5.5184
2 8.62056 0.750597 5.83694
2 0.923844 8.35536 4.75051
2 10.7437 12.5702 10.3052
2 1.09101 9.22923 10.936
2 3.22819 10.8765 10.7789
2 10.3769 4.35202 7.89007
2 4.56051 12.0802 3.27322
2 4.10628 12.4016 7.61494
2 4.00665 4.14867 10.2054
2 8.21468 6.49401 4.61389
2 3.15657 8.49808 6.71631
2 4.25922 3.88405 2.1354
2 3.94194 0.68868 9.28054
2 10.6227 7.49367 8.57036
2 8.46324 7.9934 11.5985
2 7.43178 0.62743 4.55601
2 7.90344 10.7676 10.0975
2 10.1231 0.20065 2.36213
2 10.9047 12.6083 5.8657
2 1.07039 8.77646 5.86469
2 1.05767 12.2794 1.34332
2 10.3753 8.53262 5.69436
2 7.47196 7.42845 0.84971
2 10.5605 5.38418 11.3634
2 8.22542 1.01214 11.5385
2 0.499164 8.30419 11.259
2 7.23063 8.02447 7.32604
2 11.4586 8.02421 10.9169
2 0.502072 11.9998 12.394
2 0.334439 2.70373 9.56673
2 0.698077 8.031 1.59857
2 5.8779 3.99196 11.6597
2 12.8148 10.7353 8.66929
2 3.59095 9.52229 4.48597
2 3.83839 5.68122 2.79764
2 8.97496 11.4361 8.43253
2 10.3715 1.76459 8.37933
2 11.0598 0.0862218 3.2546
2 9.88146 10.1648 0.275992
2 8.33859 9.45863 4.31928
2 5.61312 7.79935 11.1666
2 4.55144 11.1475 3.35778
2 2.84604 6.73819 3.24016
2 7.96821 1.94923 8.84711
2 11.5937 2.15311 5.39935
2 9.75696 1.5993 10.4169
2 1.21919 4.28286 5.24077
2 11.2187 4.59842 2.17989
2 12.1889 10.3319 12.5191
2 6.20724 11.1373 0.624386
2 5.15902 6.34056 8.58918
2 9.56102 1.73572 6.54159
2 8.90112 6.51741 8.40158
2 7.5615 11.8767 9.68031
2 1.18007 6.44691 2.44081
2 6.11257 6.03927 10.7416
2 6.87893 6.32061 0.434325
2 8.84543 12.7032 1.09399
2 10.4122 9.58066 3.22338
2 11.8797 10.6132 10.5904
2 1.93085 2.55534 8.25213
2 0.481829 9.04592 11.818
2 11.3065 9.2224 9.20278
2 12.4268 3.14826 9.88571
2 0.101145 6.07646 5.20667
2 8.07032 4.9642 7.24532
2 7.72529 9.16035 5.96495
2 11.8549 10.0151 6.35369
2 6.02473 2.93356 4.4496
2 2.27121 12.6313 11.104
2 0.892659 4.23567 12.6693
2 6.40117 7.55619 9.03924
2 2.5375 5.29812 4.14123
2 6.37206 2.223 9.01896
2 1.58273 5.65298 6.26783
2 12.1878 7.59078 8.13407
2 7.07184 8.40297 9.98315
2 4.43581 8.73482 4.50806
2 8.95208 10.3298 1.67514
2 6.71703 12.8439 1.97091
2 5.3256 8.58341 12.0184
2 8.7861 5.90966 2.75868
2 10.062 10.3451 11.0094
2 5.85366 11.0712 1.47323
2 11.8415 2.47377 3.31003
2 1.27411 4.18722 11.7245
2 5.43819 8.83477 7.999
2 8.62001 6.91035 0.764114
2 5.84926 3.46965 7.29245
2 9.12535 4.55282 10.2921
2 3.36773 12.8325 2.51921
2 5.86563 3.99164 1.98574
2 3.13644 12.8775 5.89865
2 11.0757 3.69486 10.0427
2 3.23897 0.928562 5.51997
2 0.778576 6.63577 9.82544
2 6.65427 5.44945 1.14846
2 3.00776 12.1195 9.69852
2 8.00955 8.66221 7.17313
2 12.5484 1.87112 3.73956