LAMMPS data file via write_data, version 22 Dec 2022, timestep = 40100

2000 atoms
2 atom types

0 13 xlo xhi
0 13 ylo yhi
0 13 zlo zhi

Masses

1 1
2 1

Atoms # atomic

1473 2 1.0402632172057167 1.7456845360834865 1.3185913914462561 1 0 1
1504 2 1.1943845993082385 1.023916566414783 12.818618603000498 0 0 -1
1462 2 0.31334510265659066 0.4891397129847682 0.9783461137094643 0 1 1
12 1 2.5302671504131364 0.20050201715913474 1.1948520908672726 2 1 0
717 1 2.9447420907391693 1.4123086164297598 0.9107204292240122 1 1 -1
1946 2 1.2274283333608464 0.7225516139198539 1.3523704406341723 0 2 0
1503 2 4.031089067150212 1.4941805365621832 0.8615365565119448 1 1 0
916 1 3.420707157024656 0.489885637264994 0.7091542946244488 -1 1 0
1078 2 3.275374882768107 0.6972525027751316 12.747597817935448 0 1 -1
851 1 5.040958162692401 1.3786624806332495 0.25769698027041227 1 1 1
693 1 4.632385182110903 0.29835335462363377 0.9684148868146696 -1 1 0
1031 2 5.66061163294482 0.7291621860030583 0.6329640477290992 2 1 -1
539 1 8.320464390968896 0.7698624667150106 1.4572583716910685 0 1 1
422 1 7.729094285712424 1.0684196921019418 0.6998427121315701 0 0 1
230 1 9.456774825010609 0.7447698836980616 12.712406191248 0 1 -2
1994 2 8.756191634711106 0.8905915229245992 0.6369374873677889 -1 0 0
1265 2 9.902528683602066 1.0065754329564758 0.5051076705046067 -1 0 0
602 1 11.025084853418996 1.1735709798157972 0.6136623003539543 0 0 0
1515 2 10.859717245925296 0.1799713714727898 0.5814220592303841 -1 1 0
472 1 11.666820284651504 12.788320371845646 0.8535712881376888 0 0 1
1658 2 11.92031166914358 0.49927304159990205 0.26373823144188 1 1 0
1671 2 0.1491771388717016 0.9436504169725617 12.75527607956449 1 0 0
1936 2 0.060652263113904065 1.53536212827667 0.647681568813379 1 0 0
694 1 0.33194057977546 2.458484601904632 0.9846265977548394 0 2 0
699 1 1.3995853382083814 1.7757914715056422 0.4723569863639057 0 0 0
1867 2 2.336960574089311 1.13549671127404 12.977883776359981 0 0 0
1373 2 2.5856469358495016 2.4783807357659073 1.2067315598940096 0 0 1
390 1 1.7325845948836531 2.763943554505319 1.146858334596239 0 0 0
1933 2 2.874130564206306 1.9694893971937353 0.12852725226829426 1 0 -1
1982 2 4.0075887852738585 2.1980329165711843 1.700382356007572 0 1 -1
1883 2 4.84522771545431 2.20078379858357 0.8748968370024522 0 1 0
257 1 3.8882364169879056 2.3748269575417735 0.4711593155124666 -1 1 1
1191 2 5.2132227502366995 1.132039756311808 1.6282453166435713 1 1 0
1271 2 6.419674279488505 2.752815199478807 0.9895950445580789 0 0 1
1837 2 5.439715566217993 2.9108302333693987 0.4961756850950983 1 -1 0
1998 2 6.084651869229316 1.7711969666720024 0.3357722954407446 1 0 1
905 1 7.301444084259279 2.4202956874422275 0.6774660943717888 0 1 0
1019 2 6.780465742642261 1.057281539310555 0.9997925930458562 0 0 1
185 1 8.174297239125455 3.0712071542879418 0.3830829544218593 0 0 1
601 1 7.720582987206859 2.551736013773079 1.4948970933394279 -1 1 1
1137 2 8.305551799137795 1.6822541120711387 1.2533464051979737 0 0 1
553 1 10.162968080187026 1.8055206483227855 0.9023340254753959 1 0 1
934 1 9.083969894848051 2.3997936863463134 0.8062032550957369 0 -1 0
555 1 9.302785359136172 1.7048621087372966 0.10457291270722333 -1 0 0
1005 2 10.870899809465946 2.1677240998114113 0.586998163119905 0 -1 0
167 1 10.90043525483691 2.8920846846190083 1.235264215065552 -1 0 0
1890 2 12.096634122634851 1.762916708500968 1.0026949206464022 -1 1 1
1100 2 12.516545879543088 2.7570947516818145 1.4081006866379528 0 0 1
1291 2 1.0499289121547561 3.194295110448514 0.762723984424782 1 -1 -1
1635 2 1.8412617479966389 4.062028778226372 1.3404225849509706 1 0 1
38 1 0.4849036517335111 3.4313311137379285 0.07792735886714164 1 1 2
1142 2 2.3209511076738836 3.0719561264735735 0.27344714041879864 1 0 1
1341 2 2.770728084679364 3.984504200396454 12.848705565539863 1 0 0
239 1 2.3016038572374624 4.552403123074581 2.0323505614515076 0 1 1
1350 2 3.792995160136691 2.999913442955807 1.0371009993152374 0 0 0
1531 2 2.9025662454041914 3.6301000462512008 0.8548644773357409 -1 0 1
898 1 3.6000835874745345 4.418959255225726 0.45343418665901564 1 0 1
1422 2 4.708232693020633 3.3705736700134046 0.9527589498458051 0 -1 0
1805 2 6.597332200683289 3.7027408901696863 0.6896785428981859 -1 0 0
980 1 7.672507475532276 3.673542808594829 0.9002574447729225 0 0 0
134 1 9.150195829468323 3.6261077076981905 0.3502777573741789 -1 0 1
645 1 8.17829959350903 3.9693051834672515 12.545152413607214 -1 1 2
770 1 10.085289340941953 3.196460182900842 0.6879220524771972 -1 0 2
1853 2 8.77847075849303 3.346992451725539 12.438613455777165 -1 0 -1
1213 2 9.895219146172456 2.5397961699950096 12.999269498150172 0 0 0
246 1 9.792927728655119 4.267113896010235 0.2570068237676497 -1 1 1
1387 2 10.405998749271472 3.784733521226313 1.29884862665531 0 1 1
168 1 10.748723029740344 3.809521682618951 0.052567289285808366 0 0 -1
1174 2 11.548042552061967 3.426505726429978 12.688362349039258 0 0 1
169 1 12.3997755722306 3.709250813579551 0.9661307713454391 0 0 1
909 1 11.773737218548046 2.7279769705391446 0.7405099430149532 0 1 1
363 1 0.20797451651417037 3.3828245920975295 1.2806324498994774 1 1 1
25 1 1.5808809030246174 4.9796622512058235 1.4220071361543913 0 0 1
1648 2 1.3935015378103417 5.271594731486937 0.5468629253881911 1 0 1
1611 2 0.11505165042528194 5.116532178466768 1.5065191648716207 0 0 0
107 1 0.4634212138873754 5.702328590767619 0.21618993423878535 1 -1 0
849 1 0.4393836085783356 4.777004871964892 0.6043709689511048 1 0 0
1482 2 2.905107057367468 5.423302030819099 1.5331190513744783 0 0 1
939 1 2.065722530899069 4.530098456278874 0.3219394780671039 1 0 2
991 1 2.169481680296803 5.721812924288792 0.679787029315463 1 -1 0
655 1 3.7026269288690146 4.9839364051087545 1.3600767504154603 1 1 1
1681 2 3.3599780202390708 4.76981737543425 12.352005071398484 -1 1 -1
91 1 2.8761327735919946 5.130341364276425 0.1788703821340232 0 1 0
1683 2 3.8684380922565453 5.271253647416425 12.953231352574491 0 0 0
1027 2 5.4224346923566875 5.181149618081875 0.23204734106112634 1 -1 0
1528 2 4.715053511963295 4.779624359979146 1.0978998116127447 0 -1 1
29 1 5.57792189525025 3.931265419522595 0.7663584282230397 0 -1 0
1208 2 6.413936092191155 4.908120153688122 0.8645078941970427 1 0 0
525 1 7.282505265507171 5.046591297488431 1.852356247617623 0 1 1
875 1 9.094825248045035 5.04952315279048 0.5665386594928566 0 1 1
1758 2 8.446370377275732 4.806401612107047 12.676060543292138 1 1 -1
330 1 7.24909297261418 5.6396517085737585 0.9188787799027541 -1 0 1
1959 2 7.425152268291221 4.784797732752944 0.3772591225202667 0 0 1
153 1 10.07256226825709 5.330158762418467 1.2946616256251222 -1 0 1
695 1 8.191752726647701 5.658459737570078 0.6530713579761258 1 -1 2
170 1 10.486562084655759 4.749169508478213 0.7093489283847577 -1 1 1
672 1 11.005465151127208 4.948119421087074 1.6377257938047187 0 0 1
465 1 10.146696320764837 5.24838737398241 11.891104721936701 1 1 -1
277 1 11.023879497397555 5.901369823260471 1.256021273606769 0 0 0
1996 2 12.571784044295903 4.50863140769738 0.5055836388995223 -1 0 -1
126 1 12.288885300310664 4.769738181446526 1.4780097913660681 0 -1 1
453 1 11.482644626243372 5.085856587387416 0.5629003618714453 0 0 0
571 1 1.5174986434552085 7.540662068777402 0.5854613036929411 1 -1 1
576 1 0.7787670173643501 5.733619348807927 1.2097452352826306 2 0 2
836 1 0.32748031779278824 6.879057611824287 0.8112315133130213 1 -1 0
1393 2 2.2577373296282395 6.586145785920571 0.7039796710162455 1 -1 0
1166 2 1.856292836945095 6.011920100499633 1.6066668332843683 0 0 0
812 1 2.4719871969916665 6.295620542245457 12.692564230510303 0 0 0
1162 2 3.4536013482749834 6.986775157263503 0.581695295150686 -1 0 2
1143 2 3.270789852270348 5.917394448612334 0.41747967227510346 0 1 0
1714 2 4.584668506074203 6.218563641664284 0.5943424259903596 0 -1 0
1784 2 4.19284131111633 6.7880594953274525 1.4194384588279743 0 0 -1
734 1 5.852499242687944 6.6022074214880755 0.4253706690549479 0 0 0
1656 2 5.18064176503067 5.689893754754533 1.2842962319602322 -1 0 1
1278 2 4.538781697672711 7.194355865245605 0.14903795221033037 -1 -1 0
1389 2 6.606570453243722 6.4604443465552635 12.998966634742445 -1 -1 -2
740 1 6.064405810908281 5.7595380529634195 1.0811161108686054 -1 0 0
948 1 6.7936707574283846 7.008626091817775 1.2387018606178897 1 1 1
1869 2 7.80465646899055 6.473821125829124 0.2969395542715712 1 1 0
906 1 9.470810232733902 6.098707435164198 1.0575325419783432 0 0 -1
807 1 8.283800391508626 6.813963407783024 1.029478678733167 0 1 1
1847 2 8.879745996085894 6.883337828776621 0.37475456482510205 0 1 -2
471 1 10.35091687375231 6.000673609914339 0.6155810189131875 -1 0 0
617 1 12.423156447367834 7.103319540468577 1.3830307280668268 -1 0 -1
1383 2 12.371093123124117 5.642301070828868 0.6532852101395026 -1 -1 1
984 1 12.247777297991897 7.057329838633436 0.29647249828665556 -1 0 0
1107 2 1.107962969740786 8.7208271841123 1.6459588014786077 1 -1 0
780 1 1.05157112707088 8.564108015595066 0.6592134846505278 0 0 0
624 1 2.0427212335197606 8.602750954816319 0.338554642630455 -1 0 1
1809 2 2.042993366577328 7.465419047786804 1.6309990529267153 1 0 1
42 1 2.87166974992632 8.025978569542941 1.1234837020514543 1 1 1
231 1 4.354054208446391 7.762243609672391 0.8192467549320859 0 0 0
1436 2 3.611035700365267 7.81238919760005 12.856585752078361 1 0 0
216 1 5.470305997965658 8.309254201446507 1.1364944010299136 0 -1 1
1068 2 4.433485905978965 8.167958987806815 12.558699315850872 1 0 -1
760 1 6.3210538464826005 9.007535202354488 0.5010282848445061 0 0 0
895 1 6.973835622214745 8.356861808783933 0.8968256105985831 -1 0 0
1164 2 7.739019026447823 8.426558365838615 0.39334492692255363 1 1 1
289 1 7.065975312927303 7.852340201613366 1.8456658518243607 0 1 1
1705 2 7.515157146634496 7.438423120998279 0.7595423510099628 0 0 -1
1641 2 8.641136360098628 7.710156021485342 0.9492411756294858 -1 -1 1
1117 2 9.262775631198075 8.411822860828783 0.2202461242010104 0 -1 1
763 1 9.726004078015825 7.14366339791484 0.5029664651832507 -2 0 -1
1560 2 11.918845805604922 8.645152842065087 0.8489234490444987 -1 -1 -1
1246 2 10.36539569843543 7.797576101835834 1.2687748189290706 0 1 1
1815 2 11.145397717647427 6.872434559217599 1.0031354421216618 -1 0 2
252 1 12.730981733879013 8.28114097517382 1.1862252706224576 0 -1 0
1106 2 11.25840329041042 9.126455562563928 0.017804790276768914 0 1 0
1485 2 1.8087480127814193 9.326847384650803 1.2997199900645364 0 -2 0
1518 2 0.8040302889544735 9.599579521161084 1.0803406630627552 1 0 1
1328 2 0.34347197457100553 8.707341317666264 0.007964642852565686 1 -1 -1
1517 2 1.3939036763204005 9.220472806721686 12.920517711553906 1 0 -1
1070 2 2.3568857125081855 10.033132132682939 0.6017049455239241 1 0 0
785 1 1.9500407037291965 8.412580459675045 1.500222568451642 0 0 0
1132 2 2.453408616298546 10.91730478501487 1.1576370407809442 0 -1 1
975 1 2.9421200685354925 8.834515476399194 0.5172096111268608 0 1 1
1559 2 3.195328226405234 9.62941893139189 1.082752600184675 0 0 0
702 1 4.312005653506611 9.795131508370103 1.4643362312117747 1 0 0
1203 2 4.769026738336429 10.390494860206653 0.7939096606864522 0 0 0
478 1 4.184385773823198 8.785026097821863 1.10782862689156 1 1 0
1391 2 7.371556748486848 8.972012778274967 12.454040331939169 0 -1 -1
1722 2 6.727272639425158 9.962530893374447 0.8165713721796327 0 0 0
67 1 5.612011489074864 9.446759664847136 1.396003722142761 0 -2 0
1940 2 8.251877470716838 9.065031052218583 12.827631135312759 0 0 -1
387 1 7.793173320848467 9.453972060945414 0.548845916245526 0 0 -1
1441 2 8.733160884666441 9.64792476282769 0.369728024784262 -2 0 -1
1175 2 8.237151741322839 8.586276896479623 1.290176482480509 -1 -1 1
1798 2 9.904462134741767 9.532103338260903 0.9563472537547691 0 1 0
794 1 10.341944810910482 9.002092612663347 0.11662550792979026 0 0 1
152 1 10.92888525471787 8.76013839158972 1.1230884014144096 -1 0 0
441 1 10.7676850894117 10.18956848629285 12.909002320644845 1 0 0
1124 2 11.85834900915141 9.7247025468475 0.8976310174444351 -1 0 0
622 1 12.95520900326089 9.928490556333845 1.0800184779183442 -1 0 1
23 1 12.63742744414635 9.128404384094397 0.4720162979752792 -1 -1 0
1600 2 12.37521579980072 10.252241926407953 0.3251262679439973 0 1 -1
832 1 0.2373271653680269 11.224370299321038 0.8308636893928016 1 0 0
1179 2 0.7759272164353441 10.399158989978234 0.41046778016244007 -1 -1 1
1060 2 1.6224127005865177 10.463422923566037 1.2497801333358758 1 -1 2
1856 2 1.628606993163339 11.051196154483305 0.2666735886959905 0 0 0
1045 2 3.244287644021928 10.164900962888705 12.781554364230356 -1 -1 0
1592 2 3.6502997735718656 10.756329996966915 0.9273959979046635 0 -1 0
278 1 3.2166885220683015 11.701181213522002 1.0771131417484296 -1 1 1
26 1 5.02980512663761 10.700046844260617 1.6116622083548608 0 -2 1
409 1 4.852351279741911 11.14229414890687 0.29539537492579176 0 0 1
141 1 6.27008540597831 11.548642757456353 0.05099602996860644 1 -1 -1
835 1 7.319880890020082 12.075555790836528 0.5088144979617694 -2 0 0
1747 2 7.414520857332703 10.733548085139539 0.4040982622288129 0 -1 1
1414 2 5.829090087220564 10.778757013609017 0.8821900819957252 0 0 0
326 1 8.123511196784882 11.087252561442963 1.0553798412844968 1 -1 0
861 1 7.999625090158096 10.371615784287123 12.95032411936678 0 -2 0
392 1 8.929022034582182 10.741378713283629 0.5557692305615014 0 0 1
203 1 9.066846302409813 11.776947131967846 0.9600202476828105 0 0 1
27 1 8.992545997533412 10.79953698673911 1.4943030009012066 1 -2 2
1731 2 11.322620096584611 11.950401933252866 0.6414699418230753 -1 -1 2
1665 2 10.661319859273998 10.953483218149497 0.45085157661556874 0 -1 0
1139 2 11.054779235355479 11.38654031810048 1.4947217816871765 -1 0 2
1057 2 11.51857594175362 10.863431995351826 0.7469468560826615 0 -1 1
1750 2 10.929006611559366 10.001252470578587 1.093735844936501 -1 -1 1
1113 2 12.050179685455143 11.560899473935727 1.2721411195338521 1 -1 0
821 1 0.2600380552349949 12.21756463227513 0.7462962331402417 2 0 0
1987 2 0.803741721087955 0.27964094770222747 0.18615041906443075 1 0 1
981 1 12.74044113830465 0.16860478320062885 0.30367307717225195 -1 1 1
52 1 1.0248985992710304 11.295038916797866 1.3321243366338653 0 -1 0
829 1 0.7404019730369418 12.705587403211492 1.5311213680152322 0 0 1
545 1 2.65218280349925 12.264710528799283 0.5693317180906844 0 -1 0
1303 2 1.2368838775958388 12.50118374269579 0.39844121245863773 0 -1 0
1861 2 1.7632185499225301 0.2985397369654885 0.49689460504327965 0 0 1
1312 2 2.905997540301859 12.479056643256145 2.0528074020535643 1 0 0
777 1 4.0005766650454335 12.540392433700454 0.870377575952097 1 0 0
1329 2 5.410060772286327 11.967214088077133 0.8135221665504668 0 -2 1
1192 2 4.796539083071138 12.536763246039811 1.7294842282214795 -1 0 0
1289 2 6.507903587124195 12.876612680811386 0.6417284698811313 1 0 0
138 1 8.07529915456342 12.846402078635519 0.5804219239502219 0 0 0
1488 2 4.771289420836265 0.011963896675484587 12.713549781830487 0 0 -2
711 1 8.361622610427803 11.847385252834826 0.21787767500288788 1 -1 0
830 1 9.053807566084826 12.656540863691635 0.6006982694131437 0 -1 2
1433 2 9.54602480725342 11.436129319853178 0.295572796932173 0 -1 0
1590 2 9.909607466473853 12.961443133715441 0.20351386691737242 0 -1 0
1099 2 11.530874014219998 12.540759804057407 1.9000627317920076 0 0 1
947 1 10.482759229539056 12.0174367966443 0.8196518172753852 -1 -1 0
1119 2 11.443510708878419 12.435353014834634 12.860972266879813 0 -1 0
43 1 12.625689448436859 12.699084651843366 1.6514396316562643 -1 1 1
1737 2 12.297647875769714 12.194913441631973 0.5245633137049225 0 0 0
1628 2 0.7166953793855494 0.4553449585755549 2.1249815930770595 1 1 -1
245 1 2.485174381172843 1.3372464617858297 2.479376941178042 -1 0 0
928 1 2.3068576227581774 0.19995722773590074 2.5676592933110975 0 1 0
1036 2 2.0340953178742094 0.6701652539332018 1.8298698808799043 1 -1 0
739 1 4.363915404149896 0.5915973694976495 2.6691844535832128 1 1 0
1882 2 3.184140535946052 0.5892493574584344 1.7918677403567564 1 0 1
1757 2 5.788427808008006 1.7907127180314892 2.1540000798529073 1 0 1
1934 2 5.226510309867414 0.22595248575341226 2.690790223793748 0 0 1
1854 2 4.178142514728233 1.0625891213502086 1.7380650294881927 0 -1 0
920 1 5.519469622705214 12.88102421497487 1.36447521038459 1 0 -2
1218 2 6.572802070681235 0.4449271104527228 2.9629955123895817 -1 1 0
198 1 7.043079102897063 1.420517803039428 2.7718631009079395 0 0 -1
95 1 6.099812788757152 0.6536356348413753 1.9916596981091392 0 1 1
1020 2 7.292487628817613 0.5821745022418672 2.0343524469325356 0 1 1
1049 2 7.923895010091998 1.3087066970731818 2.5503547799288713 -1 1 1
604 1 9.288347730416154 1.4735123101202816 1.4131547834132545 1 1 0
1891 2 9.143267345044796 0.25246449379782315 1.5531008949303107 -1 0 0
1486 2 9.032522644023242 1.3252103644980389 2.3304130548006756 -1 0 -1
306 1 10.354666936596164 0.9420160387320509 1.4151962655040178 -1 0 0
1345 2 11.334860477197255 0.8025456867201888 1.4507497109950285 0 0 1
172 1 10.588383146967995 0.31179873818277243 3.1945075706992085 0 0 1
20 1 10.508669600052418 12.773869796363407 1.5217749606138844 -1 -1 0
1061 2 0.6199974998027705 1.5504299111890947 2.6175482750838723 -1 0 1
1095 2 12.67489788523065 1.0937719818803562 3.2478017288023553 -1 0 1
1579 2 12.34631173198165 0.8175707977756926 1.190659361093484 -1 1 0
378 1 0.8537169276631674 2.3425836825247717 2.9635707347569737 0 1 0
1382 2 0.8242525137626088 2.423070632355305 1.9369861039602183 1 1 1
1557 2 2.074481538890192 1.5242871217406937 1.2820351320705603 1 1 0
805 1 1.5692064056375905 1.406113495109399 2.0786332129546543 0 -1 1
1616 2 3.1133539512054975 1.6784400639347865 1.8109654060258573 0 0 -1
1030 2 4.24473007479679 1.811170196824513 3.11351603782155 -1 0 1
1570 2 3.1028016062565396 3.1555746719271207 1.704553409889426 0 1 1
1511 2 4.985359006863733 2.175312693336441 1.9367208852975148 0 0 0
1041 2 5.172831793175741 2.3019852796403715 3.181945599331543 1 -1 0
125 1 6.468868761737727 1.9262640707615375 1.3914511137702008 0 0 1
706 1 5.580799861993703 2.9340228997564384 1.4595565264664863 1 0 1
1677 2 7.405852581768775 1.5544821380814646 1.6131928950678502 0 1 0
995 1 8.083826772368768 2.3026400674229675 2.4022921351822815 1 -1 1
1858 2 10.009842480275086 1.7153412024002688 2.4636679246448856 -1 0 1
1330 2 11.698530766908375 2.296275812133133 1.605467064237624 1 -1 0
910 1 10.869156956899362 1.6482431395516102 1.845605954095704 0 1 2
1871 2 11.066537484614615 2.299338325284086 2.610027843895328 0 0 0
1918 2 12.785406394805308 2.343645713647896 2.2078270239423805 -2 0 0
1666 2 0.030557379401148665 1.317740733162006 1.7532195773614339 2 -1 0
880 1 2.0138947403441154 2.3629566956180805 2.3761624588185555 2 -1 2
406 1 0.5068749453719567 3.3827156489120287 2.3038988261980107 1 2 1
1672 2 0.7874458165868023 4.187306335936726 1.629264501086361 0 0 0
70 1 2.0465533347849543 3.3466915982168652 2.1368572992091464 1 1 0
1857 2 3.604187408400527 2.4221149488908993 2.615707598856823 0 1 0
1040 2 2.1238705758998715 4.600410380784465 3.412992495385469 0 0 0
1151 2 4.733560715683029 3.4355384438392638 2.0072350890418087 0 1 1
650 1 2.9618997315369446 4.372401861935684 1.3783152614865282 -1 1 1
1718 2 3.882979978651751 3.6141526145333347 2.4765153091763126 1 0 0
1369 2 5.45209039872601 3.2371144592868424 2.605060573226702 -1 1 0
287 1 5.6334836522292235 4.028361687500607 2.1403656376663416 -1 0 0
1572 2 6.3093320540783795 2.8631474857169668 2.3542798450148403 0 0 1
1540 2 7.3153705281224095 3.25754013463442 2.0228286985640525 -1 0 0
1516 2 7.029089021058213 4.316761426973753 1.3702921527824894 0 1 1
505 1 6.783439020838208 4.0655985283928615 2.4499490704486027 1 0 0
86 1 8.13402068400985 3.294984441651647 3.0448102619764184 0 0 0
1752 2 8.71051133174446 2.8721540792390328 1.7061954948717208 1 0 0
412 1 7.359329581000271 4.345613284693729 3.4366929851906276 0 0 2
1730 2 8.340769983335967 4.33642834772764 0.8984447926329692 -1 0 1
774 1 9.373088747753858 4.340884897427523 1.2134228178817499 0 0 0
820 1 9.333127495700397 2.323292140950674 2.2372683061123886 0 0 1
1701 2 10.189955736172204 2.4596355620298587 1.7988194413942034 0 0 1
929 1 8.630226610132462 3.715474379360727 2.217739153585406 -1 0 -1
1399 2 11.394463494310537 3.8248584367589986 0.7945574263272105 -1 1 0
1236 2 9.496853953492376 3.468091444169037 1.8341462545522624 -1 0 0
862 1 11.205179768211478 4.221448066961761 2.130472510593918 -1 0 0
295 1 10.986894425466442 3.256991653382961 2.234460293883986 -1 0 0
1262 2 10.439745105970404 3.923266010342179 2.514520818245279 -1 0 1
1483 2 12.092663177567498 3.366321653767761 2.0736919477007048 1 0 1
116 1 11.56625569751615 5.014380338555936 2.8010136897309676 -1 0 0
190 1 12.7914444209583 3.6313561949349276 2.845858826360306 -1 2 0
1123 2 1.2080997205346382 5.0153704260064575 2.590884688799343 1 1 0
1953 2 1.1342631990021388 4.806915276136328 3.5408622564169367 -1 0 1
47 1 12.739273852729934 4.9333779204809405 2.7740046489926034 -1 0 0
1062 2 2.9182845313419152 3.9964156086269584 2.662784183993109 1 1 0
437 1 2.333106382882739 5.451538951797319 2.312814170640396 0 0 1
496 1 3.5162328199432102 4.763063791060746 2.4058351939293194 0 0 0
1715 2 4.259111220585126 5.487165643342744 3.1001314730039313 0 0 1
1534 2 5.023351460499318 4.592844715932309 2.813321978752886 1 0 -1
109 1 5.304393144763915 5.626774712004145 2.556436724928309 0 0 1
1342 2 3.8122695692006747 3.960919711095155 1.258778413438845 -1 1 1
1215 2 5.895698204041376 4.960693091145827 1.7799236069696007 1 0 0
404 1 6.818753818582593 5.19251700555944 2.896066118678864 0 1 0
1055 2 7.9425765993312805 4.295680762332153 1.9736546870497633 -1 0 0
1801 2 7.7752896873591855 5.872426336988183 2.2258793607643264 0 0 0
258 1 8.637259913707425 5.281264191414956 1.6062512566750677 0 -1 1
1591 2 9.975096623486996 4.744478219998466 1.9719173739044569 0 0 1
1018 2 11.38899758837139 5.789687164309335 2.1217738509265294 0 0 -1
1172 2 12.237438427077244 5.751910467902789 1.6663035720725177 1 0 2
1926 2 12.810289920892005 4.28686478372264 1.9953881364945207 0 0 0
272 1 12.443956560905043 5.9687285560360355 2.6908097063801835 -1 0 1
1002 2 0.3053451062732632 5.53565925409411 2.297093149824012 1 0 0
762 1 0.5245306816080766 6.717643290883068 2.6593561115467432 -1 -1 0
165 1 1.2149146163997775 5.91440856675794 2.429136261573292 1 0 1
353 1 0.5492247450738119 5.609697076755115 3.2835696877996146 2 0 0
802 1 1.2480678472817206 6.7279087474123305 1.4390922658672418 2 -1 1
300 1 1.5599236687102167 7.396262322991221 2.5653284385277435 0 0 0
814 1 2.0516041910903966 6.448524741434634 2.6421568033030893 0 -1 1
541 1 2.691252692050788 6.401863437278279 1.591524663080143 -1 -1 1
75 1 4.020168523845381 6.721919730616374 2.860347734484392 1 0 2
1228 2 4.0969944041626425 5.78141198251901 1.3230451142488178 0 0 -1
155 1 4.597807846188226 4.998587823987041 2.0439558994357268 -1 -1 1
182 1 4.867817185001328 6.597713424625812 3.0629319719452246 0 1 0
1115 2 4.749173526474082 6.334923838934075 2.0687389984363196 0 0 1
1259 2 6.883896732661695 5.868226624236066 2.0254831795718506 1 0 0
1745 2 6.656980326667784 6.936675888052574 2.319826293252566 -1 0 1
1826 2 5.835157938952485 6.579060709955834 1.4815694746919643 1 1 1
1992 2 7.5111713719156885 6.835478971501853 1.7690489307610562 -2 0 1
398 1 8.030981061032845 7.136215310805047 3.3777028592371794 0 0 0
1577 2 7.220097453744494 6.327913694220927 3.1479692539231516 0 -1 0
801 1 8.90192679764296 5.506228704300913 2.5627002524456612 -1 0 1
369 1 9.321070885142623 7.117872729279675 1.508080722876751 1 -1 1
1201 2 8.70125397712709 6.256438286518013 1.7743746182507227 -1 0 0
968 1 10.209029982887404 5.782494600958656 2.304340310814527 0 -1 0
1266 2 10.194387891844372 6.899503030923394 1.6804679267542977 -1 0 1
1785 2 10.400002192472016 6.815974723092111 2.7633906077404156 1 0 2
1993 2 11.959405068113188 6.811366582208322 2.3798323484218584 -1 0 1
1253 2 0.2214880665972732 6.438289965700459 1.6764734113735567 1 0 1
530 1 12.658577718420394 7.482203633483978 2.4460989086008245 0 -1 0
1554 2 1.0130308419444927 8.177725238351387 2.732042117527119 1 -1 0
85 1 0.5086891836290479 7.4968130594048565 1.6785881246064251 1 0 1
1016 2 3.42509483329722 7.713322824888883 1.9699519289412362 0 0 0
1806 2 3.0746289095183603 6.924133332038636 2.3025970532656648 1 0 0
179 1 3.6240078535894487 8.287033665269727 2.8251621520699515 0 -1 1
806 1 4.283167269653169 7.759229986750739 2.276652796991083 1 0 0
468 1 5.47814281441052 7.289201272302337 1.0084065330268541 1 0 0
1489 2 4.766852841139859 8.541777178890335 3.028134392457924 0 0 0
1298 2 4.871449577318022 8.506261416430679 1.7930247047482508 0 1 0
1850 2 5.331251062430405 7.080399697504457 2.204530937839553 0 0 1
1556 2 6.01781023448446 8.679329198877642 2.3297034207058096 0 0 0
748 1 6.583874064687338 7.967662068449716 2.8436131981675308 0 0 0
274 1 6.026139814933969 7.747899038476418 1.977657815025822 -1 -1 1
1326 2 6.660511150318519 9.05180212592153 1.5002699116044091 -1 -1 0
452 1 7.914211523397179 8.456346269056356 2.4508520092589783 -1 0 0
877 1 8.156309634699296 6.686175748683168 2.405602769333057 -1 0 1
809 1 8.943240112447587 7.835120821655626 2.3551421083845905 1 -1 0
234 1 9.44506335969734 8.239112063161937 1.344582815542866 0 -1 1
1444 2 11.171405804099091 7.622469890005607 1.7415060376244933 0 0 1
537 1 10.444743558147485 7.903367103404037 2.2670429955443274 -1 -1 1
148 1 0.36862247035294654 7.641947052604185 3.3905789589001305 0 0 1
643 1 12.016981121258443 8.003827530257036 1.8610872606903623 -2 -1 0
184 1 11.443096083960068 7.412656005456265 2.961557214003436 1 -1 0
1257 2 1.717857694282998 8.744548957644467 2.471290941921409 0 -1 1
1921 2 0.28119114764644565 10.085008049798827 2.3441433984019002 0 -1 0
1012 2 1.2623321213225995 9.971954633522511 2.1504862128325173 0 -1 1
810 1 12.892046843445318 9.28526222146703 2.0180467692821997 -1 0 1
1233 2 2.2278474661144894 9.552914253331272 2.0548786753725423 1 0 1
1778 2 3.7798941336873773 9.137540506925083 3.3637535147256297 0 -1 0
1169 2 2.786047509510211 8.797296068026808 1.7369713533717668 1 0 1
244 1 2.946953318401112 9.47625693014819 3.444558143375466 0 1 1
1024 2 2.471405513777694 8.001558134652758 2.4177425264487664 0 0 0
183 1 4.156836601498088 9.059362238657915 2.4652904644767486 0 0 -1
1743 2 5.004022955021463 9.55431167200276 2.150920950649484 1 1 0
635 1 4.64420404933799 9.716137918447991 3.0774887708860597 0 -1 0
101 1 6.672508555889179 10.407876949321418 2.629297319028571 0 0 1
98 1 6.916965357997256 10.0478292118002 1.7232761587696659 0 0 2
108 1 6.973724059796223 9.432479736661925 2.4614035676958887 0 0 0
176 1 8.084130785472734 7.634769205558828 1.7867881382245117 -1 0 0
1770 2 7.8498772795439145 9.364007912722434 1.8799609996729685 -1 0 1
1338 2 8.804483938175347 10.092011762337584 2.194957549186519 -2 0 0
1472 2 8.692690690715983 8.950567081779132 2.1600763869507857 0 0 0
1066 2 9.803136582642903 10.042632186716968 1.7832146414988703 0 0 1
790 1 9.094131829136803 9.396447370788133 1.574756114003925 0 -1 1
1724 2 10.309396708653178 9.115159798220786 1.8808996919608871 0 -1 1
1645 2 10.926409871654265 9.777290339954305 2.3084350444934842 0 0 1
1502 2 11.426532808178237 8.829678680472009 1.997698942849967 0 0 1
137 1 12.355357169418808 10.671959487256952 1.5411255581191934 1 0 0
610 1 12.276807496136112 9.39720763024044 2.869664836928498 -1 1 0
1710 2 11.974998544992149 9.5938575599164 1.9285354829585029 -1 1 -1
527 1 0.9611695218292959 10.827556416642592 2.433416804737176 0 0 0
841 1 0.20290472394935197 10.744913367733815 1.7937822669129628 1 0 1
1546 2 0.07507258072529906 11.739730108848173 1.669858943507502 1 -1 -1
1217 2 2.972919770496521 11.11385403809883 2.67874785760346 0 -1 1
651 1 1.7001019196451908 11.309648078045681 1.9019611341246287 0 0 1
1052 2 3.2104223036034245 10.453249104027016 1.7187096307639689 0 -1 1
1108 2 3.2398554663289336 9.394938736657828 2.5133588252185324 0 -1 0
869 1 3.3337528669451872 10.286791346383065 3.0170692471711753 0 1 1
1261 2 4.1136195776476905 10.407797343253574 2.205644681802254 0 0 0
1620 2 5.334838160456932 10.609932119428393 3.008774901424535 0 0 0
337 1 5.944549103691242 10.494008611614662 1.8660933962472537 0 0 0
737 1 6.940410491740033 11.016774426206227 1.3242195373458272 0 0 1
1863 2 7.904296160705723 10.211228016161897 1.2948412176693305 1 -1 -1
248 1 7.736254667762201 10.7272821004956 2.0590298841608767 0 0 0
1514 2 7.548436529314783 11.368955665412395 2.7775160717036353 0 -1 1
188 1 9.29097154323945 11.719852937793924 1.9875078401364066 0 2 1
1799 2 9.877518913888947 11.067467898626795 1.2323028915075227 0 1 1
664 1 9.49632245285621 10.785849422580057 2.3907023462391654 0 0 0
408 1 11.634958777514411 10.987860719825534 2.050206195550545 -1 0 1
83 1 10.65173496672495 10.82740139538817 2.312785339649184 -1 0 -1
477 1 11.584869613988865 10.254312531119176 2.672328861823603 -1 0 -1
652 1 12.509888903121736 10.654531460288634 2.60025692031508 -1 -1 0
1612 2 11.852669548584783 11.075860342644297 3.306893261616154 -2 0 0
1843 2 12.552088944475308 0.6590951553511025 2.3173339543573896 0 0 -1
292 1 1.6928668814311902 12.548515884030708 1.809173910080064 1 0 1
1351 2 1.0509073276884275 12.099304272454024 2.213641588034104 0 -2 0
1209 2 2.0965925632849136 12.049090065242666 2.5773016734059992 0 -1 2
647 1 1.6902048930115323 11.959693092085265 0.966535893817211 1 1 0
1880 2 4.2252184608046095 11.625189891961071 1.1154809615120882 0 0 0
323 1 2.7445099954586 11.511871984015858 1.8019008452133622 0 -1 1
348 1 3.404629603236081 12.069992284545807 2.9723623286153447 -1 -2 0
367 1 3.2557106884915368 11.14452698394877 3.655162313322056 0 0 0
271 1 3.881209204022734 12.888123906657968 1.822681066405464 -1 0 1
320 1 5.831369371982493 11.475142020003018 1.6091367165237278 0 0 0
24 1 7.223375491710236 12.259746663857685 2.8634807206068187 0 -1 1
661 1 6.572333060468924 11.322066685983549 2.2986098478700105 -1 0 0
1935 2 6.844246816739639 12.5492175007302 2.051496540001289 1 0 0
476 1 6.443628867685618 11.898883819141265 0.9392638008867703 1 0 1