ITEM: TIMESTEP
0
ITEM: NUMBER OF ATOMS
6912    
ITEM: BOX BOUNDS pp pp pp
0.000000000      17.925618986    
0.000000000      17.925618986    
0.000000000      17.925618986    
ITEM: ATOMS id mol type xu yu zu
1 1 1 0.000000 0.000000 0.000000
2 1 1 0.746901 0.746901 0.000000
3 1 1 0.000000 0.746901 0.746901
4 1 1 0.746901 0.000000 0.746901
5 1 1 1.493802 0.000000 0.000000
6 1 1 2.240702 0.746901 0.000000
7 1 1 1.493802 0.746901 0.746901
8 1 1 2.240702 0.000000 0.746901
9 1 1 2.987603 0.000000 0.000000
10 1 1 3.734504 0.746901 0.000000
11 1 1 2.987603 0.746901 0.746901
12 1 1 3.734504 0.000000 0.746901
13 1 1 4.481405 0.000000 0.000000
14 1 1 5.228306 0.746901 0.000000
15 1 1 4.481405 0.746901 0.746901
16 1 1 5.228306 0.000000 0.746901
17 1 1 5.975206 0.000000 0.000000
18 1 1 6.722107 0.746901 0.000000
19 1 1 5.975206 0.746901 0.746901
20 1 1 6.722107 0.000000 0.746901
21 1 1 7.469008 0.000000 0.000000
22 1 1 8.215909 0.746901 0.000000
23 1 1 7.469008 0.746901 0.746901
24 1 1 8.215909 0.000000 0.746901
25 1 1 8.962809 0.000000 0.000000
26 1 1 9.709710 0.746901 0.000000
27 1 1 8.962809 0.746901 0.746901
28 1 1 9.709710 0.000000 0.746901
29 1 1 10.456611 0.000000 0.000000
30 1 1 11.203512 0.746901 0.000000
31 1 1 10.456611 0.746901 0.746901
32 1 1 11.203512 0.000000 0.746901
33 1 1 11.950413 0.000000 0.000000
34 1 1 12.697313 0.746901 0.000000
35 1 1 11.950413 0.746901 0.746901
36 1 1 12.697313 0.000000 0.746901
37 1 1 13.444214 0.000000 0.000000
38 1 1 14.191115 0.746901 0.000000
39 1 1 13.444214 0.746901 0.746901
40 1 1 14.191115 0.000000 0.746901
41 1 1 14.938016 0.000000 0.000000
42 1 1 15.684917 0.746901 0.000000
43 1 1 14.938016 0.746901 0.746901
44 1 1 15.684917 0.000000 0.746901
45 1 1 16.431817 0.000000 0.000000
46 1 1 17.178718 0.746901 0.000000
47 1 1 16.431817 0.746901 0.746901
48 1 1 17.178718 0.000000 0.746901
49 1 1 0.000000 1.493802 0.000000
50 1 1 0.746901 2.240702 0.000000
51 1 1 0.000000 2.240702 0.746901
52 1 1 0.746901 1.493802 0.746901
53 1 1 1.493802 1.493802 0.000000
54 1 1 2.240702 2.240702 0.000000
55 1 1 1.493802 2.240702 0.746901
56 1 1 2.240702 1.493802 0.746901
57 1 1 2.987603 1.493802 0.000000
58 1 1 3.734504 2.240702 0.000000
59 1 1 2.987603 2.240702 0.746901
60 1 1 3.734504 1.493802 0.746901
61 1 1 4.481405 1.493802 0.000000
62 1 1 5.228306 2.240702 0.000000
63 1 1 4.481405 2.240702 0.746901
64 1 1 5.228306 1.493802 0.746901
65 1 1 5.975206 1.493802 0.000000
66 1 1 6.722107 2.240702 0.000000
67 1 1 5.975206 2.240702 0.746901
68 1 1 6.722107 1.493802 0.746901
69 1 1 7.469008 1.493802 0.000000
70 1 1 8.215909 2.240702 0.000000
71 1 1 7.469008 2.240702 0.746901
72 1 1 8.215909 1.493802 0.746901
73 1 1 8.962809 1.493802 0.000000
74 1 1 9.709710 2.240702 0.000000
75 1 1 8.962809 2.240702 0.746901
76 1 1 9.709710 1.493802 0.746901
77 1 1 10.456611 1.493802 0.000000
78 1 1 11.203512 2.240702 0.000000
79 1 1 10.456611 2.240702 0.746901
80 1 1 11.203512 1.493802 0.746901
81 1 1 11.950413 1.493802 0.000000
82 1 1 12.697313 2.240702 0.000000
83 1 1 11.950413 2.240702 0.746901
84 1 1 12.697313 1.493802 0.746901
85 1 1 13.444214 1.493802 0.000000
86 1 1 14.191115 2.240702 0.000000
87 1 1 13.444214 2.240702 0.746901
88 1 1 14.191115 1.493802 0.746901
89 1 1 14.938016 1.493802 0.000000
90 1 1 15.684917 2.240702 0.000000
91 1 1 14.938016 2.240702 0.746901
92 1 1 15.684917 1.493802 0.746901
93 1 1 16.431817 1.493802 0.000000
94 1 1 17.178718 2.240702 0.000000
95 1 1 16.431817 2.240702 0.746901
96 1 1 17.178718 1.493802 0.746901
97 1 1 0.000000 2.987603 0.000000
98 1 1 0.746901 3.734504 0.000000
99 1 1 0.000000 3.734504 0.746901
100 1 1 0.746901 2.987603 0.746901
101 1 1 1.493802 2.987603 0.000000
102 1 1 2.240702 3.734504 0.000000
103 1 1 1.493802 3.734504 0.746901
104 1 1 2.240702 2.987603 0.746901
105 1 1 2.987603 2.987603 0.000000
106 1 1 3.734504 3.734504 0.000000
107 1 1 2.987603 3.734504 0.746901
108 1 1 3.734504 2.987603 0.746901
109 1 1 4.481405 2.987603 0.000000
110 1 1 5.228306 3.734504 0.000000
111 1 1 4.481405 3.734504 0.746901
112 1 1 5.228306 2.987603 0.746901
113 1 1 5.975206 2.987603 0.000000
114 1 1 6.722107 3.734504 0.000000
115 1 1 5.975206 3.734504 0.746901
116 1 1 6.722107 2.987603 0.746901
117 1 1 7.469008 2.987603 0.000000
118 1 1 8.215909 3.734504 0.000000
119 1 1 7.469008 3.734504 0.746901
120 1 1 8.215909 2.987603 0.746901
121 1 1 8.962809 2.987603 0.000000
122 1 1 9.709710 3.734504 0.000000
123 1 1 8.962809 3.734504 0.746901
124 1 1 9.709710 2.987603 0.746901
125 1 1 10.456611 2.987603 0.000000
126 1 1 11.203512 3.734504 0.000000
127 1 1 10.456611 3.734504 0.746901
128 1 1 11.203512 2.987603 0.746901
129 1 1 11.950413 2.987603 0.000000
130 1 1 12.697313 3.734504 0.000000
131 1 1 11.950413 3.734504 0.746901
132 1 1 12.697313 2.987603 0.746901
133 1 1 13.444214 2.987603 0.000000
134 1 1 14.191115 3.734504 0.000000
135 1 1 13.444214 3.734504 0.746901
136 1 1 14.191115 2.987603 0.746901
137 1 1 14.938016 2.987603 0.000000
138 1 1 15.684917 3.734504 0.000000
139 1 1 14.938016 3.734504 0.746901
140 1 1 15.684917 2.987603 0.746901
141 1 1 16.431817 2.987603 0.000000
142 1 1 17.178718 3.734504 0.000000
143 1 1 16.431817 3.734504 0.746901
144 1 1 17.178718 2.987603 0.746901
145 1 1 0.000000 4.481405 0.000000
146 1 1 0.746901 5.228306 0.000000
147 1 1 0.000000 5.228306 0.746901
148 1 1 0.746901 4.481405 0.746901
149 1 1 1.493802 4.481405 0.000000
150 1 1 2.240702 5.228306 0.000000
151 1 1 1.493802 5.228306 0.746901
152 1 1 2.240702 4.481405 0.746901
153 1 1 2.987603 4.481405 0.000000
154 1 1 3.734504 5.228306 0.000000
155 1 1 2.987603 5.228306 0.746901
156 1 1 3.734504 4.481405 0.746901
157 1 1 4.481405 4.481405 0.000000
158 1 1 5.228306 5.228306 0.000000
159 1 1 4.481405 5.228306 0.746901
160 1 1 5.228306 4.481405 0.746901
161 1 1 5.975206 4.481405 0.000000
162 1 1 6.722107 5.228306 0.000000
163 1 1 5.975206 5.228306 0.746901
164 1 1 6.722107 4.481405 0.746901
165 1 1 7.469008 4.481405 0.000000
166 1 1 8.215909 5.228306 0.000000
167 1 1 7.469008 5.228306 0.746901
168 1 1 8.215909 4.481405 0.746901
169 1 1 8.962809 4.481405 0.000000
170 1 1 9.709710 5.228306 0.000000
171 1 1 8.962809 5.228306 0.746901
172 1 1 9.709710 4.481405 0.746901
173 1 1 10.456611 4.481405 0.000000
174 1 1 11.203512 5.228306 0.000000
175 1 1 10.456611 5.228306 0.746901
176 1 1 11.203512 4.481405 0.746901
177 1 1 11.950413 4.481405 0.000000
178 1 1 12.697313 5.228306 0.000000
179 1 1 11.950413 5.228306 0.746901
180 1 1 12.697313 4.481405 0.746901
181 1 1 13.444214 4.481405 0.000000
182 1 1 14.191115 5.228306 0.000000
183 1 1 13.444214 5.228306 0.746901
184 1 1 14.191115 4.481405 0.746901
185 1 1 14.938016 4.481405 0.000000
186 1 1 15.684917 5.228306 0.000000
187 1 1 14.938016 5.228306 0.746901
188 1 1 15.684917 4.481405 0.746901
189 1 1 16.431817 4.481405 0.000000
190 1 1 17.178718 5.228306 0.000000
191 1 1 16.431817 5.228306 0.746901
192 1 1 17.178718 4.481405 0.746901
193 1 1 0.000000 5.975206 0.000000
194 1 1 0.746901 6.722107 0.000000
195 1 1 0.000000 6.722107 0.746901
196 1 1 0.746901 5.975206 0.746901
197 1 1 1.493802 5.975206 0.000000
198 1 1 2.240702 6.722107 0.000000
199 1 1 1.493802 6.722107 0.746901
200 1 1 2.240702 5.975206 0.746901
201 1 1 2.987603 5.975206 0.000000
202 1 1 3.734504 6.722107 0.000000
203 1 1 2.987603 6.722107 0.746901
204 1 1 3.734504 5.975206 0.746901
205 1 1 4.481405 5.975206 0.000000
206 1 1 5.228306 6.722107 0.000000
207 1 1 4.481405 6.722107 0.746901
208 1 1 5.228306 5.975206 0.746901
209 1 1 5.975206 5.975206 0.000000
210 1 1 6.722107 6.722107 0.000000
211 1 1 5.975206 6.722107 0.746901
212 1 1 6.722107 5.975206 0.746901
213 1 1 7.469008 5.975206 0.000000
214 1 1 8.215909 6.722107 0.000000
215 1 1 7.469008 6.722107 0.746901
216 1 1 8.215909 5.975206 0.746901
217 1 1 8.962809 5.975206 0.000000
218 1 1 9.709710 6.722107 0.000000
219 1 1 8.962809 6.722107 0.746901
220 1 1 9.709710 5.975206 0.746901
221 1 1 10.456611 5.975206 0.000000
222 1 1 11.203512 6.722107 0.000000
223 1 1 10.456611 6.722107 0.746901
224 1 1 11.203512 5.975206 0.746901
225 1 1 11.950413 5.975206 0.000000
226 1 1 12.697313 6.722107 0.000000
227 1 1 11.950413 6.722107 0.746901
228 1 1 12.697313 5.975206 0.746901
229 1 1 13.444214 5.975206 0.000000
230 1 1 14.191115 6.722107 0.000000
231 1 1 13.444214 6.722107 0.746901
232 1 1 14.191115 5.975206 0.746901
233 1 1 14.938016 5.975206 0.000000
234 1 1 15.684917 6.722107 0.000000
235 1 1 14.938016 6.722107 0.746901
236 1 1 15.684917 5.975206 0.746901
237 1 1 16.431817 5.975206 0.000000
238 1 1 17.178718 6.722107 0.000000
239 1 1 16.431817 6.722107 0.746901
240 1 1 17.178718 5.975206 0.746901
241 1 1 0.000000 7.469008 0.000000
242 1 1 0.746901 8.215909 0.000000
243 1 1 0.000000 8.215909 0.746901
244 1 1 0.746901 7.469008 0.746901
245 1 1 1.493802 7.469008 0.000000
246 1 1 2.240702 8.215909 0.000000
247 1 1 1.493802 8.215909 0.746901
248 1 1 2.240702 7.469008 0.746901
249 1 1 2.987603 7.469008 0.000000
250 1 1 3.734504 8.215909 0.000000
251 1 1 2.987603 8.215909 0.746901
252 1 1 3.734504 7.469008 0.746901
253 1 1 4.481405 7.469008 0.000000
254 1 1 5.228306 8.215909 0.000000
255 1 1 4.481405 8.215909 0.746901
256 1 1 5.228306 7.469008 0.746901
257 1 1 5.975206 7.469008 0.000000
258 1 1 6.722107 8.215909 0.000000
259 1 1 5.975206 8.215909 0.746901
260 1 1 6.722107 7.469008 0.746901
261 1 1 7.469008 7.469008 0.000000
262 1 1 8.215909 8.215909 0.000000
263 1 1 7.469008 8.215909 0.746901
264 1 1 8.215909 7.469008 0.746901
265 1 1 8.962809 7.469008 0.000000
266 1 1 9.709710 8.215909 0.000000
267 1 1 8.962809 8.215909 0.746901
268 1 1 9.709710 7.469008 0.746901
269 1 1 10.456611 7.469008 0.000000
270 1 1 11.203512 8.215909 0.000000
271 1 1 10.456611 8.215909 0.746901
272 1 1 11.203512 7.469008 0.746901
273 1 1 11.950413 7.469008 0.000000
274 1 1 12.697313 8.215909 0.000000
275 1 1 11.950413 8.215909 0.746901
276 1 1 12.697313 7.469008 0.746901
277 1 1 13.444214 7.469008 0.000000
278 1 1 14.191115 8.215909 0.000000
279 1 1 13.444214 8.215909 0.746901
280 1 1 14.191115 7.469008 0.746901
281 1 1 14.938016 7.469008 0.000000
282 1 1 15.684917 8.215909 0.000000
283 1 1 14.938016 8.215909 0.746901
284 1 1 15.684917 7.469008 0.746901
285 1 1 16.431817 7.469008 0.000000
286 1 1 17.178718 8.215909 0.000000
287 1 1 16.431817 8.215909 0.746901
288 1 1 17.178718 7.469008 0.746901
289 1 1 0.000000 8.962809 0.000000
290 1 1 0.746901 9.709710 0.000000
291 1 1 0.000000 9.709710 0.746901
292 1 1 0.746901 8.962809 0.746901
293 1 1 1.493802 8.962809 0.000000
294 1 1 2.240702 9.709710 0.000000
295 1 1 1.493802 9.709710 0.746901
296 1 1 2.240702 8.962809 0.746901
297 1 1 2.987603 8.962809 0.000000
298 1 1 3.734504 9.709710 0.000000
299 1 1 2.987603 9.709710 0.746901
300 1 1 3.734504 8.962809 0.746901
301 1 1 4.481405 8.962809 0.000000
302 1 1 5.228306 9.709710 0.000000
303 1 1 4.481405 9.709710 0.746901
304 1 1 5.228306 8.962809 0.746901
305 1 1 5.975206 8.962809 0.000000
306 1 1 6.722107 9.709710 0.000000
307 1 1 5.975206 9.709710 0.746901
308 1 1 6.722107 8.962809 0.746901
309 1 1 7.469008 8.962809 0.000000
310 1 1 8.215909 9.709710 0.000000
311 1 1 7.469008 9.709710 0.746901
312 1 1 8.215909 8.962809 0.746901
313 1 1 8.962809 8.962809 0.000000
314 1 1 9.709710 9.709710 0.000000
315 1 1 8.962809 9.709710 0.746901
316 1 1 9.709710 8.962809 0.746901
317 1 1 10.456611 8.962809 0.000000
318 1 1 11.203512 9.709710 0.000000
319 1 1 10.456611 9.709710 0.746901
320 1 1 11.203512 8.962809 0.746901
321 1 1 11.950413 8.962809 0.000000
322 1 1 12.697313 9.709710 0.000000
323 1 1 11.950413 9.709710 0.746901
324 1 1 12.697313 8.962809 0.746901
325 1 1 13.444214 8.962809 0.000000
326 1 1 14.191115 9.709710 0.000000
327 1 1 13.444214 9.709710 0.746901
328 1 1 14.191115 8.962809 0.746901
329 1 1 14.938016 8.962809 0.000000
330 1 1 15.684917 9.709710 0.000000
331 1 1 14.938016 9.709710 0.746901
332 1 1 15.684917 8.962809 0.746901
333 1 1 16.431817 8.962809 0.000000
334 1 1 17.178718 9.709710 0.000000
335 1 1 16.431817 9.709710 0.746901
336 1 1 17.178718 8.962809 0.746901
337 1 1 0.000000 10.456611 0.000000
338 1 1 0.746901 11.203512 0.000000
339 1 1 0.000000 11.203512 0.746901
340 1 1 0.746901 10.456611 0.746901
341 1 1 1.493802 10.456611 0.000000
342 1 1 2.240702 11.203512 0.000000
343 1 1 1.493802 11.203512 0.746901
344 1 1 2.240702 10.456611 0.746901
345 1 1 2.987603 10.456611 0.000000
346 1 1 3.734504 11.203512 0.000000
347 1 1 2.987603 11.203512 0.746901
348 1 1 3.734504 10.456611 0.746901
349 1 1 4.481405 10.456611 0.000000
350 1 1 5.228306 11.203512 0.000000
351 1 1 4.481405 11.203512 0.746901
352 1 1 5.228306 10.456611 0.746901
353 1 1 5.975206 10.456611 0.000000
354 1 1 6.722107 11.203512 0.000000
355 1 1 5.975206 11.203512 0.746901
356 1 1 6.722107 10.456611 0.746901
357 1 1 7.469008 10.456611 0.000000
358 1 1 8.215909 11.203512 0.000000
359 1 1 7.469008 11.203512 0.746901
360 1 1 8.215909 10.456611 0.746901
361 1 1 8.962809 10.456611 0.000000
362 1 1 9.709710 11.203512 0.000000
363 1 1 8.962809 11.203512 0.746901
364 1 1 9.709710 10.456611 0.746901
365 1 1 10.456611 10.456611 0.000000
366 1 1 11.203512 11.203512 0.000000
367 1 1 10.456611 11.203512 0.746901
368 1 1 11.203512 10.456611 0.746901
369 1 1 11.950413 10.456611 0.000000
370 1 1 12.697313 11.203512 0.000000
371 1 1 11.950413 11.203512 0.746901
372 1 1 12.697313 10.456611 0.746901
373 1 1 13.444214 10.456611 0.000000
374 1 1 14.191115 11.203512 0.000000
375 1 1 13.444214 11.203512 0.746901
376 1 1 14.191115 10.456611 0.746901
377 1 1 14.938016 10.456611 0.000000
378 1 1 15.684917 11.203512 0.000000
379 1 1 14.938016 11.203512 0.746901
380 1 1 15.684917 10.456611 0.746901
381 1 1 16.431817 10.456611 0.000000
382 1 1 17.178718 11.203512 0.000000
383 1 1 16.431817 11.203512 0.746901
384 1 1 17.178718 10.456611 0.746901
385 1 1 0.000000 11.950413 0.000000
386 1 1 0.746901 12.697313 0.000000
387 1 1 0.000000 12.697313 0.746901
388 1 1 0.746901 11.950413 0.746901
389 1 1 1.493802 11.950413 0.000000
390 1 1 2.240702 12.697313 0.000000
391 1 1 1.493802 12.697313 0.746901
392 1 1 2.240702 11.950413 0.746901
393 1 1 2.987603 11.950413 0.000000
394 1 1 3.734504 12.697313 0.000000
395 1 1 2.987603 12.697313 0.746901
396 1 1 3.734504 11.950413 0.746901
397 1 1 4.481405 11.950413 0.000000
398 1 1 5.228306 12.697313 0.000000
399 1 1 4.481405 12.697313 0.746901
400 1 1 5.228306 11.950413 0.746901
401 1 1 5.975206 11.950413 0.000000
402 1 1 6.722107 12.697313 0.000000
403 1 1 5.975206 12.697313 0.746901
404 1 1 6.722107 11.950413 0.746901
405 1 1 7.469008 11.950413 0.000000
406 1 1 8.215909 12.697313 0.000000
407 1 1 7.469008 12.697313 0.746901
408 1 1 8.215909 11.950413 0.746901
409 1 1 8.962809 11.950413 0.000000
410 1 1 9.709710 12.697313 0.000000
411 1 1 8.962809 12.697313 0.746901
412 1 1 9.709710 11.950413 0.746901
413 1 1 10.456611 11.950413 0.000000
414 1 1 11.203512 12.697313 0.000000
415 1 1 10.456611 12.697313 0.746901
416 1 1 11.203512 11.950413 0.746901
417 1 1 11.950413 11.950413 0.000000
418 1 1 12.697313 12.697313 0.000000
419 1 1 11.950413 12.697313 0.746901
420 1 1 12.697313 11.950413 0.746901
421 1 1 13.444214 11.950413 0.000000
422 1 1 14.191115 12.697313 0.000000
423 1 1 13.444214 12.697313 0.746901
424 1 1 14.191115 11.950413 0.746901
425 1 1 14.938016 11.950413 0.000000
426 1 1 15.684917 12.697313 0.000000
427 1 1 14.938016 12.697313 0.746901
428 1 1 15.684917 11.950413 0.746901
429 1 1 16.431817 11.950413 0.000000
430 1 1 17.178718 12.697313 0.000000
431 1 1 16.431817 12.697313 0.746901
432 1 1 17.178718 11.950413 0.746901
433 1 1 0.000000 13.444214 0.000000
434 1 1 0.746901 14.191115 0.000000
435 1 1 0.000000 14.191115 0.746901
436 1 1 0.746901 13.444214 0.746901
437 1 1 1.493802 13.444214 0.000000
438 1 1 2.240702 14.191115 0.000000
439 1 1 1.493802 14.191115 0.746901
440 1 1 2.240702 13.444214 0.746901
441 1 1 2.987603 13.444214 0.000000
442 1 1 3.734504 14.191115 0.000000
443 1 1 2.987603 14.191115 0.746901
444 1 1 3.734504 13.444214 0.746901
445 1 1 4.481405 13.444214 0.000000
446 1 1 5.228306 14.191115 0.000000
447 1 1 4.481405 14.191115 0.746901
448 1 1 5.228306 13.444214 0.746901
449 1 1 5.975206 13.444214 0.000000
450 1 1 6.722107 14.191115 0.000000
451 1 1 5.975206 14.191115 0.746901
452 1 1 6.722107 13.444214 0.746901
453 1 1 7.469008 13.444214 0.000000
454 1 1 8.215909 14.191115 0.000000
455 1 1 7.469008 14.191115 0.746901
456 1 1 8.215909 13.444214 0.746901
457 1 1 8.962809 13.444214 0.000000
458 1 1 9.709710 14.191115 0.000000
459 1 1 8.962809 14.191115 0.746901
460 1 1 9.709710 13.444214 0.746901
461 1 1 10.456611 13.444214 0.000000
462 1 1 11.203512 14.191115 0.000000
463 1 1 10.456611 14.191115 0.746901
464 1 1 11.203512 13.444214 0.746901
465 1 1 11.950413 13.444214 0.000000
466 1 1 12.697313 14.191115 0.000000
467 1 1 11.950413 14.191115 0.746901
468 1 1 12.697313 13.444214 0.746901
469 1 1 13.444214 13.444214 0.000000
470 1 1 14.191115 14.191115 0.000000
471 1 1 13.444214 14.191115 0.746901
472 1 1 14.191115 13.444214 0.746901
473 1 1 14.938016 13.444214 0.000000
474 1 1 15.684917 14.191115 0.000000
475 1 1 14.938016 14.191115 0.746901
476 1 1 15.684917 13.444214 0.746901
477 1 1 16.431817 13.444214 0.000000
478 1 1 17.178718 14.191115 0.000000
479 1 1 16.431817 14.191115 0.746901
480 1 1 17.178718 13.444214 0.746901
481 1 1 0.000000 14.938016 0.000000
482 1 1 0.746901 15.684917 0.000000
483 1 1 0.000000 15.684917 0.746901
484 1 1 0.746901 14.938016 0.746901
485 1 1 1.493802 14.938016 0.000000
486 1 1 2.240702 15.684917 0.000000
487 1 1 1.493802 15.684917 0.746901
488 1 1 2.240702 14.938016 0.746901
489 1 1 2.987603 14.938016 0.000000
490 1 1 3.734504 15.684917 0.000000
491 1 1 2.987603 15.684917 0.746901
492 1 1 3.734504 14.938016 0.746901
493 1 1 4.481405 14.938016 0.000000
494 1 1 5.228306 15.684917 0.000000
495 1 1 4.481405 15.684917 0.746901
496 1 1 5.228306 14.938016 0.746901
497 1 1 5.975206 14.938016 0.000000
498 1 1 6.722107 15.684917 0.000000
499 1 1 5.975206 15.684917 0.746901
500 1 1 6.722107 14.938016 0.746901
501 1 1 7.469008 14.938016 0.000000
502 1 1 8.215909 15.684917 0.000000
503 1 1 7.469008 15.684917 0.746901
504 1 1 8.215909 14.938016 0.746901
505 1 1 8.962809 14.938016 0.000000
506 1 1 9.709710 15.684917 0.000000
507 1 1 8.962809 15.684917 0.746901
508 1 1 9.709710 14.938016 0.746901
509 1 1 10.456611 14.938016 0.000000
510 1 1 11.203512 15.684917 0.000000
511 1 1 10.456611 15.684917 0.746901
512 1 1 11.203512 14.938016 0.746901
513 1 1 11.950413 14.938016 0.000000
514 1 1 12.697313 15.684917 0.000000
515 1 1 11.950413 15.684917 0.746901
516 1 1 12.697313 14.938016 0.746901
517 1 1 13.444214 14.938016 0.000000
518 1 1 14.191115 15.684917 0.000000
519 1 1 13.444214 15.684917 0.746901
520 1 1 14.191115 14.938016 0.746901
521 1 1 14.938016 14.938016 0.000000
522 1 1 15.684917 15.684917 0.000000
523 1 1 14.938016 15.684917 0.746901
524 1 1 15.684917 14.938016 0.746901
525 1 1 16.431817 14.938016 0.000000
526 1 1 17.178718 15.684917 0.000000
527 1 1 16.431817 15.684917 0.746901
528 1 1 17.178718 14.938016 0.746901
529 1 1 0.000000 16.431817 0.000000
530 1 1 0.746901 17.178718 0.000000
531 1 1 0.000000 17.178718 0.746901
532 1 1 0.746901 16.431817 0.746901
533 1 1 1.493802 16.431817 0.000000
534 1 1 2.240702 17.178718 0.000000
535 1 1 1.493802 17.178718 0.746901
536 1 1 2.240702 16.431817 0.746901
537 1 1 2.987603 16.431817 0.000000
538 1 1 3.734504 17.178718 0.000000
539 1 1 2.987603 17.178718 0.746901
540 1 1 3.734504 16.431817 0.746901
541 1 1 4.481405 16.431817 0.000000
542 1 1 5.228306 17.178718 0.000000
543 1 1 4.481405 17.178718 0.746901
544 1 1 5.228306 16.431817 0.746901
545 1 1 5.975206 16.431817 0.000000
546 1 1 6.722107 17.178718 0.000000
547 1 1 5.975206 17.178718 0.746901
548 1 1 6.722107 16.431817 0.746901
549 1 1 7.469008 16.431817 0.000000
550 1 1 8.215909 17.178718 0.000000
551 1 1 7.469008 17.178718 0.746901
552 1 1 8.215909 16.431817 0.746901
553 1 1 8.962809 16.431817 0.000000
554 1 1 9.709710 17.178718 0.000000
555 1 1 8.962809 17.178718 0.746901
556 1 1 9.709710 16.431817 0.746901
557 1 1 10.456611 16.431817 0.000000
558 1 1 11.203512 17.178718 0.000000
559 1 1 10.456611 17.178718 0.746901
560 1 1 11.203512 16.431817 0.746901
561 1 1 11.950413 16.431817 0.000000
562 1 1 12.697313 17.178718 0.000000
563 1 1 11.950413 17.178718 0.746901
564 1 1 12.697313 16.431817 0.746901
565 1 1 13.444214 16.431817 0.000000
566 1 1 14.191115 17.178718 0.000000
567 1 1 13.444214 17.178718 0.746901
568 1 1 14.191115 16.431817 0.746901
569 1 1 14.938016 16.431817 0.000000
570 1 1 15.684917 17.178718 0.000000
571 1 1 14.938016 17.178718 0.746901
572 1 1 15.684917 16.431817 0.746901
573 1 1 16.431817 16.431817 0.000000
574 1 1 17.178718 17.178718 0.000000
575 1 1 16.431817 17.178718 0.746901
576 1 1 17.178718 16.431817 0.746901
577 1 1 0.000000 0.000000 1.493802
578 1 1 0.746901 0.746901 1.493802
579 1 1 0.000000 0.746901 2.240702
580 1 1 0.746901 0.000000 2.240702
581 1 1 1.493802 0.000000 1.493802
582 1 1 2.240702 0.746901 1.493802
583 1 1 1.493802 0.746901 2.240702
584 1 1 2.240702 0.000000 2.240702
585 1 1 2.987603 0.000000 1.493802
586 1 1 3.734504 0.746901 1.493802
587 1 1 2.987603 0.746901 2.240702
588 1 1 3.734504 0.000000 2.240702
589 1 1 4.481405 0.000000 1.493802
590 1 1 5.228306 0.746901 1.493802
591 1 1 4.481405 0.746901 2.240702
592 1 1 5.228306 0.000000 2.240702
593 1 1 5.975206 0.000000 1.493802
594 1 1 6.722107 0.746901 1.493802
595 1 1 5.975206 0.746901 2.240702
596 1 1 6.722107 0.000000 2.240702
597 1 1 7.469008 0.000000 1.493802
598 1 1 8.215909 0.746901 1.493802
599 1 1 7.469008 0.746901 2.240702
600 1 1 8.215909 0.000000 2.240702
601 1 1 8.962809 0.000000 1.493802
602 1 1 9.709710 0.746901 1.493802
603 1 1 8.962809 0.746901 2.240702
604 1 1 9.709710 0.000000 2.240702
605 1 1 10.456611 0.000000 1.493802
606 1 1 11.203512 0.746901 1.493802
607 1 1 10.456611 0.746901 2.240702
608 1 1 11.203512 0.000000 2.240702
609 1 1 11.950413 0.000000 1.493802
610 1 1 12.697313 0.746901 1.493802
611 1 1 11.950413 0.746901 2.240702
612 1 1 12.697313 0.000000 2.240702
613 1 1 13.444214 0.000000 1.493802
614 1 1 14.191115 0.746901 1.493802
615 1 1 13.444214 0.746901 2.240702
616 1 1 14.191115 0.000000 2.240702
617 1 1 14.938016 0.000000 1.493802
618 1 1 15.684917 0.746901 1.493802
619 1 1 14.938016 0.746901 2.240702
620 1 1 15.684917 0.000000 2.240702
621 1 1 16.431817 0.000000 1.493802
622 1 1 17.178718 0.746901 1.493802
623 1 1 16.431817 0.746901 2.240702
624 1 1 17.178718 0.000000 2.240702
625 1 1 0.000000 1.493802 1.493802
626 1 1 0.746901 2.240702 1.493802
627 1 1 0.000000 2.240702 2.240702
628 1 1 0.746901 1.493802 2.240702
629 1 1 1.493802 1.493802 1.493802
630 1 1 2.240702 2.240702 1.493802
631 1 1 1.493802 2.240702 2.240702
632 1 1 2.240702 1.493802 2.240702
633 1 1 2.987603 1.493802 1.493802
634 1 1 3.734504 2.240702 1.493802
635 1 1 2.987603 2.240702 2.240702
636 1 1 3.734504 1.493802 2.240702
637 1 1 4.481405 1.493802 1.493802
638 1 1 5.228306 2.240702 1.493802
639 1 1 4.481405 2.240702 2.240702
640 1 1 5.228306 1.493802 2.240702
641 1 1 5.975206 1.493802 1.493802
642 1 1 6.722107 2.240702 1.493802
643 1 1 5.975206 2.240702 2.240702
644 1 1 6.722107 1.493802 2.240702
645 1 1 7.469008 1.493802 1.493802
646 1 1 8.215909 2.240702 1.493802
647 1 1 7.469008 2.240702 2.240702
648 1 1 8.215909 1.493802 2.240702
649 1 1 8.962809 1.493802 1.493802
650 1 1 9.709710 2.240702 1.493802
651 1 1 8.962809 2.240702 2.240702
652 1 1 9.709710 1.493802 2.240702
653 1 1 10.456611 1.493802 1.493802
654 1 1 11.203512 2.240702 1.493802
655 1 1 10.456611 2.240702 2.240702
656 1 1 11.203512 1.493802 2.240702
657 1 1 11.950413 1.493802 1.493802
658 1 1 12.697313 2.240702 1.493802
659 1 1 11.950413 2.240702 2.240702
660 1 1 12.697313 1.493802 2.240702
661 1 1 13.444214 1.493802 1.493802
662 1 1 14.191115 2.240702 1.493802
663 1 1 13.444214 2.240702 2.240702
664 1 1 14.191115 1.493802 2.240702
665 1 1 14.938016 1.493802 1.493802
666 1 1 15.684917 2.240702 1.493802
667 1 1 14.938016 2.240702 2.240702
668 1 1 15.684917 1.493802 2.240702
669 1 1 16.431817 1.493802 1.493802
670 1 1 17.178718 2.240702 1.493802
671 1 1 16.431817 2.240702 2.240702
672 1 1 17.178718 1.493802 2.240702
673 1 1 0.000000 2.987603 1.493802
674 1 1 0.746901 3.734504 1.493802
675 1 1 0.000000 3.734504 2.240702
676 1 1 0.746901 2.987603 2.240702
677 1 1 1.493802 2.987603 1.493802
678 1 1 2.240702 3.734504 1.493802
679 1 1 1.493802 3.734504 2.240702
680 1 1 2.240702 2.987603 2.240702
681 1 1 2.987603 2.987603 1.493802
682 1 1 3.734504 3.734504 1.493802
683 1 1 2.987603 3.734504 2.240702
684 1 1 3.734504 2.987603 2.240702
685 1 1 4.481405 2.987603 1.493802
686 1 1 5.228306 3.734504 1.493802
687 1 1 4.481405 3.734504 2.240702
688 1 1 5.228306 2.987603 2.240702
689 1 1 5.975206 2.987603 1.493802
690 1 1 6.722107 3.734504 1.493802
691 1 1 5.975206 3.734504 2.240702
692 1 1 6.722107 2.987603 2.240702
693 1 1 7.469008 2.987603 1.493802
694 1 1 8.215909 3.734504 1.493802
695 1 1 7.469008 3.734504 2.240702
696 1 1 8.215909 2.987603 2.240702
697 1 1 8.962809 2.987603 1.493802
698 1 1 9.709710 3.734504 1.493802
699 1 1 8.962809 3.734504 2.240702
700 1 1 9.709710 2.987603 2.240702
701 1 1 10.456611 2.987603 1.493802
702 1 1 11.203512 3.734504 1.493802
703 1 1 10.456611 3.734504 2.240702
704 1 1 11.203512 2.987603 2.240702
705 1 1 11.950413 2.987603 1.493802
706 1 1 12.697313 3.734504 1.493802
707 1 1 11.950413 3.734504 2.240702
708 1 1 12.697313 2.987603 2.240702
709 1 1 13.444214 2.987603 1.493802
710 1 1 14.191115 3.734504 1.493802
711 1 1 13.444214 3.734504 2.240702
712 1 1 14.191115 2.987603 2.240702
713 1 1 14.938016 2.987603 1.493802
714 1 1 15.684917 3.734504 1.493802
715 1 1 14.938016 3.734504 2.240702
716 1 1 15.684917 2.987603 2.240702
717 1 1 16.431817 2.987603 1.493802
718 1 1 17.178718 3.734504 1.493802
719 1 1 16.431817 3.734504 2.240702
720 1 1 17.178718 2.987603 2.240702
721 1 1 0.000000 4.481405 1.493802
722 1 1 0.746901 5.228306 1.493802
723 1 1 0.000000 5.228306 2.240702
724 1 1 0.746901 4.481405 2.240702
725 1 1 1.493802 4.481405 1.493802
726 1 1 2.240702 5.228306 1.493802
727 1 1 1.493802 5.228306 2.240702
728 1 1 2.240702 4.481405 2.240702
729 1 1 2.987603 4.481405 1.493802
730 1 1 3.734504 5.228306 1.493802
731 1 1 2.987603 5.228306 2.240702
732 1 1 3.734504 4.481405 2.240702
733 1 1 4.481405 4.481405 1.493802
734 1 1 5.228306 5.228306 1.493802
735 1 1 4.481405 5.228306 2.240702
736 1 1 5.228306 4.481405 2.240702
737 1 1 5.975206 4.481405 1.493802
738 1 1 6.722107 5.228306 1.493802
739 1 1 5.975206 5.228306 2.240702
740 1 1 6.722107 4.481405 2.240702
741 1 1 7.469008 4.481405 1.493802
742 1 1 8.215909 5.228306 1.493802
743 1 1 7.469008 5.228306 2.240702
744 1 1 8.215909 4.481405 2.240702
745 1 1 8.962809 4.481405 1.493802
746 1 1 9.709710 5.228306 1.493802
747 1 1 8.962809 5.228306 2.240702
748 1 1 9.709710 4.481405 2.240702
749 1 1 10.456611 4.481405 1.493802
750 1 1 11.203512 5.228306 1.493802
751 1 1 10.456611 5.228306 2.240702
752 1 1 11.203512 4.481405 2.240702
753 1 1 11.950413 4.481405 1.493802
754 1 1 12.697313 5.228306 1.493802
755 1 1 11.950413 5.228306 2.240702
756 1 1 12.697313 4.481405 2.240702
757 1 1 13.444214 4.481405 1.493802
758 1 1 14.191115 5.228306 1.493802
759 1 1 13.444214 5.228306 2.240702
760 1 1 14.191115 4.481405 2.240702
761 1 1 14.938016 4.481405 1.493802
762 1 1 15.684917 5.228306 1.493802
763 1 1 14.938016 5.228306 2.240702
764 1 1 15.684917 4.481405 2.240702
765 1 1 16.431817 4.481405 1.493802
766 1 1 17.178718 5.228306 1.493802
767 1 1 16.431817 5.228306 2.240702
768 1 1 17.178718 4.481405 2.240702
769 1 1 0.000000 5.975206 1.493802
770 1 1 0.746901 6.722107 1.493802
771 1 1 0.000000 6.722107 2.240702
772 1 1 0.746901 5.975206 2.240702
773 1 1 1.493802 5.975206 1.493802
774 1 1 2.240702 6.722107 1.493802
775 1 1 1.493802 6.722107 2.240702
776 1 1 2.240702 5.975206 2.240702
777 1 1 2.987603 5.975206 1.493802
778 1 1 3.734504 6.722107 1.493802
779 1 1 2.987603 6.722107 2.240702
780 1 1 3.734504 5.975206 2.240702
781 1 1 4.481405 5.975206 1.493802
782 1 1 5.228306 6.722107 1.493802
783 1 1 4.481405 6.722107 2.240702
784 1 1 5.228306 5.975206 2.240702
785 1 1 5.975206 5.975206 1.493802
786 1 1 6.722107 6.722107 1.493802
787 1 1 5.975206 6.722107 2.240702
788 1 1 6.722107 5.975206 2.240702
789 1 1 7.469008 5.975206 1.493802
790 1 1 8.215909 6.722107 1.493802
791 1 1 7.469008 6.722107 2.240702
792 1 1 8.215909 5.975206 2.240702
793 1 1 8.962809 5.975206 1.493802
794 1 1 9.709710 6.722107 1.493802
795 1 1 8.962809 6.722107 2.240702
796 1 1 9.709710 5.975206 2.240702
797 1 1 10.456611 5.975206 1.493802
798 1 1 11.203512 6.722107 1.493802
799 1 1 10.456611 6.722107 2.240702
800 1 1 11.203512 5.975206 2.240702
801 1 1 11.950413 5.975206 1.493802
802 1 1 12.697313 6.722107 1.493802
803 1 1 11.950413 6.722107 2.240702
804 1 1 12.697313 5.975206 2.240702
805 1 1 13.444214 5.975206 1.493802
806 1 1 14.191115 6.722107 1.493802
807 1 1 13.444214 6.722107 2.240702
808 1 1 14.191115 5.975206 2.240702
809 1 1 14.938016 5.975206 1.493802
810 1 1 15.684917 6.722107 1.493802
811 1 1 14.938016 6.722107 2.240702
812 1 1 15.684917 5.975206 2.240702
813 1 1 16.431817 5.975206 1.493802
814 1 1 17.178718 6.722107 1.493802
815 1 1 16.431817 6.722107 2.240702
816 1 1 17.178718 5.975206 2.240702
817 1 1 0.000000 7.469008 1.493802
818 1 1 0.746901 8.215909 1.493802
819 1 1 0.000000 8.215909 2.240702
820 1 1 0.746901 7.469008 2.240702
821 1 1 1.493802 7.469008 1.493802
822 1 1 2.240702 8.215909 1.493802
823 1 1 1.493802 8.215909 2.240702
824 1 1 2.240702 7.469008 2.240702
825 1 1 2.987603 7.469008 1.493802
826 1 1 3.734504 8.215909 1.493802
827 1 1 2.987603 8.215909 2.240702
828 1 1 3.734504 7.469008 2.240702
829 1 1 4.481405 7.469008 1.493802
830 1 1 5.228306 8.215909 1.493802
831 1 1 4.481405 8.215909 2.240702
832 1 1 5.228306 7.469008 2.240702
833 1 1 5.975206 7.469008 1.493802
834 1 1 6.722107 8.215909 1.493802
835 1 1 5.975206 8.215909 2.240702
836 1 1 6.722107 7.469008 2.240702
837 1 1 7.469008 7.469008 1.493802