# LAMMPS data file

6912 atoms
0 bonds

1 atom types
0 bond types

0.000000000      17.925618986     xlo xhi
0.000000000      17.925618986     ylo yhi
0.000000000      17.925618986     zlo zhi

Masses

1 1.000000000      # A

Atoms

1 1 1 0.000000000      0.000000000      0.000000000      0.000000000      # A
2 1 1 0.000000000      0.746900791      0.746900791      0.000000000      # A
3 1 1 0.000000000      0.000000000      0.746900791      0.746900791      # A
4 1 1 0.000000000      0.746900791      0.000000000      0.746900791      # A
5 1 1 0.000000000      1.493801582      0.000000000      0.000000000      # A
6 1 1 0.000000000      2.240702373      0.746900791      0.000000000      # A
7 1 1 0.000000000      1.493801582      0.746900791      0.746900791      # A
8 1 1 0.000000000      2.240702373      0.000000000      0.746900791      # A
9 1 1 0.000000000      2.987603164      0.000000000      0.000000000      # A
10 1 1 0.000000000      3.734503955      0.746900791      0.000000000      # A
11 1 1 0.000000000      2.987603164      0.746900791      0.746900791      # A
12 1 1 0.000000000      3.734503955      0.000000000      0.746900791      # A
13 1 1 0.000000000      4.481404747      0.000000000      0.000000000      # A
14 1 1 0.000000000      5.228305538      0.746900791      0.000000000      # A
15 1 1 0.000000000      4.481404747      0.746900791      0.746900791      # A
16 1 1 0.000000000      5.228305538      0.000000000      0.746900791      # A
17 1 1 0.000000000      5.975206329      0.000000000      0.000000000      # A
18 1 1 0.000000000      6.722107120      0.746900791      0.000000000      # A
19 1 1 0.000000000      5.975206329      0.746900791      0.746900791      # A
20 1 1 0.000000000      6.722107120      0.000000000      0.746900791      # A
21 1 1 0.000000000      7.469007911      0.000000000      0.000000000      # A
22 1 1 0.000000000      8.215908702      0.746900791      0.000000000      # A
23 1 1 0.000000000      7.469007911      0.746900791      0.746900791      # A
24 1 1 0.000000000      8.215908702      0.000000000      0.746900791      # A
25 1 1 0.000000000      8.962809493      0.000000000      0.000000000      # A
26 1 1 0.000000000      9.709710284      0.746900791      0.000000000      # A
27 1 1 0.000000000      8.962809493      0.746900791      0.746900791      # A
28 1 1 0.000000000      9.709710284      0.000000000      0.746900791      # A
29 1 1 0.000000000      10.456611075     0.000000000      0.000000000      # A
30 1 1 0.000000000      11.203511866     0.746900791      0.000000000      # A
31 1 1 0.000000000      10.456611075     0.746900791      0.746900791      # A
32 1 1 0.000000000      11.203511866     0.000000000      0.746900791      # A
33 1 1 0.000000000      11.950412657     0.000000000      0.000000000      # A
34 1 1 0.000000000      12.697313448     0.746900791      0.000000000      # A
35 1 1 0.000000000      11.950412657     0.746900791      0.746900791      # A
36 1 1 0.000000000      12.697313448     0.000000000      0.746900791      # A
37 1 1 0.000000000      13.444214240     0.000000000      0.000000000      # A
38 1 1 0.000000000      14.191115031     0.746900791      0.000000000      # A
39 1 1 0.000000000      13.444214240     0.746900791      0.746900791      # A
40 1 1 0.000000000      14.191115031     0.000000000      0.746900791      # A
41 1 1 0.000000000      14.938015822     0.000000000      0.000000000      # A
42 1 1 0.000000000      15.684916613     0.746900791      0.000000000      # A
43 1 1 0.000000000      14.938015822     0.746900791      0.746900791      # A
44 1 1 0.000000000      15.684916613     0.000000000      0.746900791      # A
45 1 1 0.000000000      16.431817404     0.000000000      0.000000000      # A
46 1 1 0.000000000      17.178718195     0.746900791      0.000000000      # A
47 1 1 0.000000000      16.431817404     0.746900791      0.746900791      # A
48 1 1 0.000000000      17.178718195     0.000000000      0.746900791      # A
49 1 1 0.000000000      0.000000000      1.493801582      0.000000000      # A
50 1 1 0.000000000      0.746900791      2.240702373      0.000000000      # A
51 1 1 0.000000000      0.000000000      2.240702373      0.746900791      # A
52 1 1 0.000000000      0.746900791      1.493801582      0.746900791      # A
53 1 1 0.000000000      1.493801582      1.493801582      0.000000000      # A
54 1 1 0.000000000      2.240702373      2.240702373      0.000000000      # A
55 1 1 0.000000000      1.493801582      2.240702373      0.746900791      # A
56 1 1 0.000000000      2.240702373      1.493801582      0.746900791      # A
57 1 1 0.000000000      2.987603164      1.493801582      0.000000000      # A
58 1 1 0.000000000      3.734503955      2.240702373      0.000000000      # A
59 1 1 0.000000000      2.987603164      2.240702373      0.746900791      # A
60 1 1 0.000000000      3.734503955      1.493801582      0.746900791      # A
61 1 1 0.000000000      4.481404747      1.493801582      0.000000000      # A
62 1 1 0.000000000      5.228305538      2.240702373      0.000000000      # A
63 1 1 0.000000000      4.481404747      2.240702373      0.746900791      # A
64 1 1 0.000000000      5.228305538      1.493801582      0.746900791      # A
65 1 1 0.000000000      5.975206329      1.493801582      0.000000000      # A
66 1 1 0.000000000      6.722107120      2.240702373      0.000000000      # A
67 1 1 0.000000000      5.975206329      2.240702373      0.746900791      # A
68 1 1 0.000000000      6.722107120      1.493801582      0.746900791      # A
69 1 1 0.000000000      7.469007911      1.493801582      0.000000000      # A
70 1 1 0.000000000      8.215908702      2.240702373      0.000000000      # A
71 1 1 0.000000000      7.469007911      2.240702373      0.746900791      # A
72 1 1 0.000000000      8.215908702      1.493801582      0.746900791      # A
73 1 1 0.000000000      8.962809493      1.493801582      0.000000000      # A
74 1 1 0.000000000      9.709710284      2.240702373      0.000000000      # A
75 1 1 0.000000000      8.962809493      2.240702373      0.746900791      # A
76 1 1 0.000000000      9.709710284      1.493801582      0.746900791      # A
77 1 1 0.000000000      10.456611075     1.493801582      0.000000000      # A
78 1 1 0.000000000      11.203511866     2.240702373      0.000000000      # A
79 1 1 0.000000000      10.456611075     2.240702373      0.746900791      # A
80 1 1 0.000000000      11.203511866     1.493801582      0.746900791      # A
81 1 1 0.000000000      11.950412657     1.493801582      0.000000000      # A
82 1 1 0.000000000      12.697313448     2.240702373      0.000000000      # A
83 1 1 0.000000000      11.950412657     2.240702373      0.746900791      # A
84 1 1 0.000000000      12.697313448     1.493801582      0.746900791      # A
85 1 1 0.000000000      13.444214240     1.493801582      0.000000000      # A
86 1 1 0.000000000      14.191115031     2.240702373      0.000000000      # A
87 1 1 0.000000000      13.444214240     2.240702373      0.746900791      # A
88 1 1 0.000000000      14.191115031     1.493801582      0.746900791      # A
89 1 1 0.000000000      14.938015822     1.493801582      0.000000000      # A
90 1 1 0.000000000      15.684916613     2.240702373      0.000000000      # A
91 1 1 0.000000000      14.938015822     2.240702373      0.746900791      # A
92 1 1 0.000000000      15.684916613     1.493801582      0.746900791      # A
93 1 1 0.000000000      16.431817404     1.493801582      0.000000000      # A
94 1 1 0.000000000      17.178718195     2.240702373      0.000000000      # A
95 1 1 0.000000000      16.431817404     2.240702373      0.746900791      # A
96 1 1 0.000000000      17.178718195     1.493801582      0.746900791      # A
97 1 1 0.000000000      0.000000000      2.987603164      0.000000000      # A
98 1 1 0.000000000      0.746900791      3.734503955      0.000000000      # A
99 1 1 0.000000000      0.000000000      3.734503955      0.746900791      # A
100 1 1 0.000000000      0.746900791      2.987603164      0.746900791      # A
101 1 1 0.000000000      1.493801582      2.987603164      0.000000000      # A
102 1 1 0.000000000      2.240702373      3.734503955      0.000000000      # A
103 1 1 0.000000000      1.493801582      3.734503955      0.746900791      # A
104 1 1 0.000000000      2.240702373      2.987603164      0.746900791      # A
105 1 1 0.000000000      2.987603164      2.987603164      0.000000000      # A
106 1 1 0.000000000      3.734503955      3.734503955      0.000000000      # A
107 1 1 0.000000000      2.987603164      3.734503955      0.746900791      # A
108 1 1 0.000000000      3.734503955      2.987603164      0.746900791      # A
109 1 1 0.000000000      4.481404747      2.987603164      0.000000000      # A
110 1 1 0.000000000      5.228305538      3.734503955      0.000000000      # A
111 1 1 0.000000000      4.481404747      3.734503955      0.746900791      # A
112 1 1 0.000000000      5.228305538      2.987603164      0.746900791      # A
113 1 1 0.000000000      5.975206329      2.987603164      0.000000000      # A
114 1 1 0.000000000      6.722107120      3.734503955      0.000000000      # A
115 1 1 0.000000000      5.975206329      3.734503955      0.746900791      # A
116 1 1 0.000000000      6.722107120      2.987603164      0.746900791      # A
117 1 1 0.000000000      7.469007911      2.987603164      0.000000000      # A
118 1 1 0.000000000      8.215908702      3.734503955      0.000000000      # A
119 1 1 0.000000000      7.469007911      3.734503955      0.746900791      # A
120 1 1 0.000000000      8.215908702      2.987603164      0.746900791      # A
121 1 1 0.000000000      8.962809493      2.987603164      0.000000000      # A
122 1 1 0.000000000      9.709710284      3.734503955      0.000000000      # A
123 1 1 0.000000000      8.962809493      3.734503955      0.746900791      # A
124 1 1 0.000000000      9.709710284      2.987603164      0.746900791      # A
125 1 1 0.000000000      10.456611075     2.987603164      0.000000000      # A
126 1 1 0.000000000      11.203511866     3.734503955      0.000000000      # A
127 1 1 0.000000000      10.456611075     3.734503955      0.746900791      # A
128 1 1 0.000000000      11.203511866     2.987603164      0.746900791      # A
129 1 1 0.000000000      11.950412657     2.987603164      0.000000000      # A
130 1 1 0.000000000      12.697313448     3.734503955      0.000000000      # A
131 1 1 0.000000000      11.950412657     3.734503955      0.746900791      # A
132 1 1 0.000000000      12.697313448     2.987603164      0.746900791      # A
133 1 1 0.000000000      13.444214240     2.987603164      0.000000000      # A
134 1 1 0.000000000      14.191115031     3.734503955      0.000000000      # A
135 1 1 0.000000000      13.444214240     3.734503955      0.746900791      # A
136 1 1 0.000000000      14.191115031     2.987603164      0.746900791      # A
137 1 1 0.000000000      14.938015822     2.987603164      0.000000000      # A
138 1 1 0.000000000      15.684916613     3.734503955      0.000000000      # A
139 1 1 0.000000000      14.938015822     3.734503955      0.746900791      # A
140 1 1 0.000000000      15.684916613     2.987603164      0.746900791      # A
141 1 1 0.000000000      16.431817404     2.987603164      0.000000000      # A
142 1 1 0.000000000      17.178718195     3.734503955      0.000000000      # A
143 1 1 0.000000000      16.431817404     3.734503955      0.746900791      # A
144 1 1 0.000000000      17.178718195     2.987603164      0.746900791      # A
145 1 1 0.000000000      0.000000000      4.481404747      0.000000000      # A
146 1 1 0.000000000      0.746900791      5.228305538      0.000000000      # A
147 1 1 0.000000000      0.000000000      5.228305538      0.746900791      # A
148 1 1 0.000000000      0.746900791      4.481404747      0.746900791      # A
149 1 1 0.000000000      1.493801582      4.481404747      0.000000000      # A
150 1 1 0.000000000      2.240702373      5.228305538      0.000000000      # A
151 1 1 0.000000000      1.493801582      5.228305538      0.746900791      # A
152 1 1 0.000000000      2.240702373      4.481404747      0.746900791      # A
153 1 1 0.000000000      2.987603164      4.481404747      0.000000000      # A
154 1 1 0.000000000      3.734503955      5.228305538      0.000000000      # A
155 1 1 0.000000000      2.987603164      5.228305538      0.746900791      # A
156 1 1 0.000000000      3.734503955      4.481404747      0.746900791      # A
157 1 1 0.000000000      4.481404747      4.481404747      0.000000000      # A
158 1 1 0.000000000      5.228305538      5.228305538      0.000000000      # A
159 1 1 0.000000000      4.481404747      5.228305538      0.746900791      # A
160 1 1 0.000000000      5.228305538      4.481404747      0.746900791      # A
161 1 1 0.000000000      5.975206329      4.481404747      0.000000000      # A
162 1 1 0.000000000      6.722107120      5.228305538      0.000000000      # A
163 1 1 0.000000000      5.975206329      5.228305538      0.746900791      # A
164 1 1 0.000000000      6.722107120      4.481404747      0.746900791      # A
165 1 1 0.000000000      7.469007911      4.481404747      0.000000000      # A
166 1 1 0.000000000      8.215908702      5.228305538      0.000000000      # A
167 1 1 0.000000000      7.469007911      5.228305538      0.746900791      # A
168 1 1 0.000000000      8.215908702      4.481404747      0.746900791      # A
169 1 1 0.000000000      8.962809493      4.481404747      0.000000000      # A
170 1 1 0.000000000      9.709710284      5.228305538      0.000000000      # A
171 1 1 0.000000000      8.962809493      5.228305538      0.746900791      # A
172 1 1 0.000000000      9.709710284      4.481404747      0.746900791      # A
173 1 1 0.000000000      10.456611075     4.481404747      0.000000000      # A
174 1 1 0.000000000      11.203511866     5.228305538      0.000000000      # A
175 1 1 0.000000000      10.456611075     5.228305538      0.746900791      # A
176 1 1 0.000000000      11.203511866     4.481404747      0.746900791      # A
177 1 1 0.000000000      11.950412657     4.481404747      0.000000000      # A
178 1 1 0.000000000      12.697313448     5.228305538      0.000000000      # A
179 1 1 0.000000000      11.950412657     5.228305538      0.746900791      # A
180 1 1 0.000000000      12.697313448     4.481404747      0.746900791      # A
181 1 1 0.000000000      13.444214240     4.481404747      0.000000000      # A
182 1 1 0.000000000      14.191115031     5.228305538      0.000000000      # A
183 1 1 0.000000000      13.444214240     5.228305538      0.746900791      # A
184 1 1 0.000000000      14.191115031     4.481404747      0.746900791      # A
185 1 1 0.000000000      14.938015822     4.481404747      0.000000000      # A
186 1 1 0.000000000      15.684916613     5.228305538      0.000000000      # A
187 1 1 0.000000000      14.938015822     5.228305538      0.746900791      # A
188 1 1 0.000000000      15.684916613     4.481404747      0.746900791      # A
189 1 1 0.000000000      16.431817404     4.481404747      0.000000000      # A
190 1 1 0.000000000      17.178718195     5.228305538      0.000000000      # A
191 1 1 0.000000000      16.431817404     5.228305538      0.746900791      # A
192 1 1 0.000000000      17.178718195     4.481404747      0.746900791      # A
193 1 1 0.000000000      0.000000000      5.975206329      0.000000000      # A
194 1 1 0.000000000      0.746900791      6.722107120      0.000000000      # A
195 1 1 0.000000000      0.000000000      6.722107120      0.746900791      # A
196 1 1 0.000000000      0.746900791      5.975206329      0.746900791      # A
197 1 1 0.000000000      1.493801582      5.975206329      0.000000000      # A
198 1 1 0.000000000      2.240702373      6.722107120      0.000000000      # A
199 1 1 0.000000000      1.493801582      6.722107120      0.746900791      # A
200 1 1 0.000000000      2.240702373      5.975206329      0.746900791      # A
201 1 1 0.000000000      2.987603164      5.975206329      0.000000000      # A
202 1 1 0.000000000      3.734503955      6.722107120      0.000000000      # A
203 1 1 0.000000000      2.987603164      6.722107120      0.746900791      # A
204 1 1 0.000000000      3.734503955      5.975206329      0.746900791      # A
205 1 1 0.000000000      4.481404747      5.975206329      0.000000000      # A
206 1 1 0.000000000      5.228305538      6.722107120      0.000000000      # A
207 1 1 0.000000000      4.481404747      6.722107120      0.746900791      # A
208 1 1 0.000000000      5.228305538      5.975206329      0.746900791      # A
209 1 1 0.000000000      5.975206329      5.975206329      0.000000000      # A
210 1 1 0.000000000      6.722107120      6.722107120      0.000000000      # A
211 1 1 0.000000000      5.975206329      6.722107120      0.746900791      # A
212 1 1 0.000000000      6.722107120      5.975206329      0.746900791      # A
213 1 1 0.000000000      7.469007911      5.975206329      0.000000000      # A
214 1 1 0.000000000      8.215908702      6.722107120      0.000000000      # A
215 1 1 0.000000000      7.469007911      6.722107120      0.746900791      # A
216 1 1 0.000000000      8.215908702      5.975206329      0.746900791      # A
217 1 1 0.000000000      8.962809493      5.975206329      0.000000000      # A
218 1 1 0.000000000      9.709710284      6.722107120      0.000000000      # A
219 1 1 0.000000000      8.962809493      6.722107120      0.746900791      # A
220 1 1 0.000000000      9.709710284      5.975206329      0.746900791      # A
221 1 1 0.000000000      10.456611075     5.975206329      0.000000000      # A
222 1 1 0.000000000      11.203511866     6.722107120      0.000000000      # A
223 1 1 0.000000000      10.456611075     6.722107120      0.746900791      # A
224 1 1 0.000000000      11.203511866     5.975206329      0.746900791      # A
225 1 1 0.000000000      11.950412657     5.975206329      0.000000000      # A
226 1 1 0.000000000      12.697313448     6.722107120      0.000000000      # A
227 1 1 0.000000000      11.950412657     6.722107120      0.746900791      # A
228 1 1 0.000000000      12.697313448     5.975206329      0.746900791      # A
229 1 1 0.000000000      13.444214240     5.975206329      0.000000000      # A
230 1 1 0.000000000      14.191115031     6.722107120      0.000000000      # A
231 1 1 0.000000000      13.444214240     6.722107120      0.746900791      # A
232 1 1 0.000000000      14.191115031     5.975206329      0.746900791      # A
233 1 1 0.000000000      14.938015822     5.975206329      0.000000000      # A
234 1 1 0.000000000      15.684916613     6.722107120      0.000000000      # A
235 1 1 0.000000000      14.938015822     6.722107120      0.746900791      # A
236 1 1 0.000000000      15.684916613     5.975206329      0.746900791      # A
237 1 1 0.000000000      16.431817404     5.975206329      0.000000000      # A
238 1 1 0.000000000      17.178718195     6.722107120      0.000000000      # A
239 1 1 0.000000000      16.431817404     6.722107120      0.746900791      # A
240 1 1 0.000000000      17.178718195     5.975206329      0.746900791      # A
241 1 1 0.000000000      0.000000000      7.469007911      0.000000000      # A
242 1 1 0.000000000      0.746900791      8.215908702      0.000000000      # A
243 1 1 0.000000000      0.000000000      8.215908702      0.746900791      # A
244 1 1 0.000000000      0.746900791      7.469007911      0.746900791      # A
245 1 1 0.000000000      1.493801582      7.469007911      0.000000000      # A
246 1 1 0.000000000      2.240702373      8.215908702      0.000000000      # A
247 1 1 0.000000000      1.493801582      8.215908702      0.746900791      # A
248 1 1 0.000000000      2.240702373      7.469007911      0.746900791      # A
249 1 1 0.000000000      2.987603164      7.469007911      0.000000000      # A
250 1 1 0.000000000      3.734503955      8.215908702      0.000000000      # A
251 1 1 0.000000000      2.987603164      8.215908702      0.746900791      # A
252 1 1 0.000000000      3.734503955      7.469007911      0.746900791      # A
253 1 1 0.000000000      4.481404747      7.469007911      0.000000000      # A
254 1 1 0.000000000      5.228305538      8.215908702      0.000000000      # A
255 1 1 0.000000000      4.481404747      8.215908702      0.746900791      # A
256 1 1 0.000000000      5.228305538      7.469007911      0.746900791      # A
257 1 1 0.000000000      5.975206329      7.469007911      0.000000000      # A
258 1 1 0.000000000      6.722107120      8.215908702      0.000000000      # A
259 1 1 0.000000000      5.975206329      8.215908702      0.746900791      # A
260 1 1 0.000000000      6.722107120      7.469007911      0.746900791      # A
261 1 1 0.000000000      7.469007911      7.469007911      0.000000000      # A
262 1 1 0.000000000      8.215908702      8.215908702      0.000000000      # A
263 1 1 0.000000000      7.469007911      8.215908702      0.746900791      # A
264 1 1 0.000000000      8.215908702      7.469007911      0.746900791      # A
265 1 1 0.000000000      8.962809493      7.469007911      0.000000000      # A
266 1 1 0.000000000      9.709710284      8.215908702      0.000000000      # A
267 1 1 0.000000000      8.962809493      8.215908702      0.746900791      # A
268 1 1 0.000000000      9.709710284      7.469007911      0.746900791      # A
269 1 1 0.000000000      10.456611075     7.469007911      0.000000000      # A
270 1 1 0.000000000      11.203511866     8.215908702      0.000000000      # A
271 1 1 0.000000000      10.456611075     8.215908702      0.746900791      # A
272 1 1 0.000000000      11.203511866     7.469007911      0.746900791      # A
273 1 1 0.000000000      11.950412657     7.469007911      0.000000000      # A
274 1 1 0.000000000      12.697313448     8.215908702      0.000000000      # A
275 1 1 0.000000000      11.950412657     8.215908702      0.746900791      # A
276 1 1 0.000000000      12.697313448     7.469007911      0.746900791      # A
277 1 1 0.000000000      13.444214240     7.469007911      0.000000000      # A
278 1 1 0.000000000      14.191115031     8.215908702      0.000000000      # A
279 1 1 0.000000000      13.444214240     8.215908702      0.746900791      # A
280 1 1 0.000000000      14.191115031     7.469007911      0.746900791      # A
281 1 1 0.000000000      14.938015822     7.469007911      0.000000000      # A
282 1 1 0.000000000      15.684916613     8.215908702      0.000000000      # A
283 1 1 0.000000000      14.938015822     8.215908702      0.746900791      # A
284 1 1 0.000000000      15.684916613     7.469007911      0.746900791      # A
285 1 1 0.000000000      16.431817404     7.469007911      0.000000000      # A
286 1 1 0.000000000      17.178718195     8.215908702      0.000000000      # A
287 1 1 0.000000000      16.431817404     8.215908702      0.746900791      # A
288 1 1 0.000000000      17.178718195     7.469007911      0.746900791      # A
289 1 1 0.000000000      0.000000000      8.962809493      0.000000000      # A
290 1 1 0.000000000      0.746900791      9.709710284      0.000000000      # A
291 1 1 0.000000000      0.000000000      9.709710284      0.746900791      # A
292 1 1 0.000000000      0.746900791      8.962809493      0.746900791      # A
293 1 1 0.000000000      1.493801582      8.962809493      0.000000000      # A
294 1 1 0.000000000      2.240702373      9.709710284      0.000000000      # A
295 1 1 0.000000000      1.493801582      9.709710284      0.746900791      # A
296 1 1 0.000000000      2.240702373      8.962809493      0.746900791      # A
297 1 1 0.000000000      2.987603164      8.962809493      0.000000000      # A
298 1 1 0.000000000      3.734503955      9.709710284      0.000000000      # A
299 1 1 0.000000000      2.987603164      9.709710284      0.746900791      # A
300 1 1 0.000000000      3.734503955      8.962809493      0.746900791      # A
301 1 1 0.000000000      4.481404747      8.962809493      0.000000000      # A
302 1 1 0.000000000      5.228305538      9.709710284      0.000000000      # A
303 1 1 0.000000000      4.481404747      9.709710284      0.746900791      # A
304 1 1 0.000000000      5.228305538      8.962809493      0.746900791      # A
305 1 1 0.000000000      5.975206329      8.962809493      0.000000000      # A
306 1 1 0.000000000      6.722107120      9.709710284      0.000000000      # A
307 1 1 0.000000000      5.975206329      9.709710284      0.746900791      # A
308 1 1 0.000000000      6.722107120      8.962809493      0.746900791      # A
309 1 1 0.000000000      7.469007911      8.962809493      0.000000000      # A
310 1 1 0.000000000      8.215908702      9.709710284      0.000000000      # A
311 1 1 0.000000000      7.469007911      9.709710284      0.746900791      # A
312 1 1 0.000000000      8.215908702      8.962809493      0.746900791      # A
313 1 1 0.000000000      8.962809493      8.962809493      0.000000000      # A
314 1 1 0.000000000      9.709710284      9.709710284      0.000000000      # A
315 1 1 0.000000000      8.962809493      9.709710284      0.746900791      # A
316 1 1 0.000000000      9.709710284      8.962809493      0.746900791      # A
317 1 1 0.000000000      10.456611075     8.962809493      0.000000000      # A
318 1 1 0.000000000      11.203511866     9.709710284      0.000000000      # A
319 1 1 0.000000000      10.456611075     9.709710284      0.746900791      # A
320 1 1 0.000000000      11.203511866     8.962809493      0.746900791      # A
321 1 1 0.000000000      11.950412657     8.962809493      0.000000000      # A
322 1 1 0.000000000      12.697313448     9.709710284      0.000000000      # A
323 1 1 0.000000000      11.950412657     9.709710284      0.746900791      # A
324 1 1 0.000000000      12.697313448     8.962809493      0.746900791      # A
325 1 1 0.000000000      13.444214240     8.962809493      0.000000000      # A
326 1 1 0.000000000      14.191115031     9.709710284      0.000000000      # A
327 1 1 0.000000000      13.444214240     9.709710284      0.746900791      # A
328 1 1 0.000000000      14.191115031     8.962809493      0.746900791      # A
329 1 1 0.000000000      14.938015822     8.962809493      0.000000000      # A
330 1 1 0.000000000      15.684916613     9.709710284      0.000000000      # A
331 1 1 0.000000000      14.938015822     9.709710284      0.746900791      # A
332 1 1 0.000000000      15.684916613     8.962809493      0.746900791      # A
333 1 1 0.000000000      16.431817404     8.962809493      0.000000000      # A
334 1 1 0.000000000      17.178718195     9.709710284      0.000000000      # A
335 1 1 0.000000000      16.431817404     9.709710284      0.746900791      # A
336 1 1 0.000000000      17.178718195     8.962809493      0.746900791      # A
337 1 1 0.000000000      0.000000000      10.456611075     0.000000000      # A
338 1 1 0.000000000      0.746900791      11.203511866     0.000000000      # A
339 1 1 0.000000000      0.000000000      11.203511866     0.746900791      # A
340 1 1 0.000000000      0.746900791      10.456611075     0.746900791      # A
341 1 1 0.000000000      1.493801582      10.456611075     0.000000000      # A
342 1 1 0.000000000      2.240702373      11.203511866     0.000000000      # A
343 1 1 0.000000000      1.493801582      11.203511866     0.746900791      # A
344 1 1 0.000000000      2.240702373      10.456611075     0.746900791      # A
345 1 1 0.000000000      2.987603164      10.456611075     0.000000000      # A
346 1 1 0.000000000      3.734503955      11.203511866     0.000000000      # A
347 1 1 0.000000000      2.987603164      11.203511866     0.746900791      # A
348 1 1 0.000000000      3.734503955      10.456611075     0.746900791      # A
349 1 1 0.000000000      4.481404747      10.456611075     0.000000000      # A
350 1 1 0.000000000      5.228305538      11.203511866     0.000000000      # A
351 1 1 0.000000000      4.481404747      11.203511866     0.746900791      # A
352 1 1 0.000000000      5.228305538      10.456611075     0.746900791      # A
353 1 1 0.000000000      5.975206329      10.456611075     0.000000000      # A
354 1 1 0.000000000      6.722107120      11.203511866     0.000000000      # A
355 1 1 0.000000000      5.975206329      11.203511866     0.746900791      # A
356 1 1 0.000000000      6.722107120      10.456611075     0.746900791      # A
357 1 1 0.000000000      7.469007911      10.456611075     0.000000000      # A
358 1 1 0.000000000      8.215908702      11.203511866     0.000000000      # A
359 1 1 0.000000000      7.469007911      11.203511866     0.746900791      # A
360 1 1 0.000000000      8.215908702      10.456611075     0.746900791      # A
361 1 1 0.000000000      8.962809493      10.456611075     0.000000000      # A
362 1 1 0.000000000      9.709710284      11.203511866     0.000000000      # A
363 1 1 0.000000000      8.962809493      11.203511866     0.746900791      # A
364 1 1 0.000000000      9.709710284      10.456611075     0.746900791      # A
365 1 1 0.000000000      10.456611075     10.456611075     0.000000000      # A
366 1 1 0.000000000      11.203511866     11.203511866     0.000000000      # A
367 1 1 0.000000000      10.456611075     11.203511866     0.746900791      # A
368 1 1 0.000000000      11.203511866     10.456611075     0.746900791      # A
369 1 1 0.000000000      11.950412657     10.456611075     0.000000000      # A
370 1 1 0.000000000      12.697313448     11.203511866     0.000000000      # A
371 1 1 0.000000000      11.950412657     11.203511866     0.746900791      # A
372 1 1 0.000000000      12.697313448     10.456611075     0.746900791      # A
373 1 1 0.000000000      13.444214240     10.456611075     0.000000000      # A