ITEM: TIMESTEP
0
ITEM: NUMBER OF ATOMS
32000   
ITEM: BOX BOUNDS pp pp pp
0.000000000      70.400000000    
0.000000000      70.400000000    
0.000000000      70.400000000    
ITEM: ATOMS id mol type xu yu zu
1 1 1 0.000000 0.000000 0.000000
2 1 1 1.760000 1.760000 0.000000
3 1 1 0.000000 1.760000 1.760000
4 1 1 1.760000 0.000000 1.760000
5 1 1 3.520000 0.000000 0.000000
6 1 1 5.280000 1.760000 0.000000
7 1 1 3.520000 1.760000 1.760000
8 1 1 5.280000 0.000000 1.760000
9 1 1 7.040000 0.000000 0.000000
10 1 1 8.800000 1.760000 0.000000
11 1 1 7.040000 1.760000 1.760000
12 1 1 8.800000 0.000000 1.760000
13 1 1 10.560000 0.000000 0.000000
14 1 1 12.320000 1.760000 0.000000
15 1 1 10.560000 1.760000 1.760000
16 1 1 12.320000 0.000000 1.760000
17 1 1 14.080000 0.000000 0.000000
18 1 1 15.840000 1.760000 0.000000
19 1 1 14.080000 1.760000 1.760000
20 1 1 15.840000 0.000000 1.760000
21 1 1 17.600000 0.000000 0.000000
22 1 1 19.360000 1.760000 0.000000
23 1 1 17.600000 1.760000 1.760000
24 1 1 19.360000 0.000000 1.760000
25 1 1 21.120000 0.000000 0.000000
26 1 1 22.880000 1.760000 0.000000
27 1 1 21.120000 1.760000 1.760000
28 1 1 22.880000 0.000000 1.760000
29 1 1 24.640000 0.000000 0.000000
30 1 1 26.400000 1.760000 0.000000
31 1 1 24.640000 1.760000 1.760000
32 1 1 26.400000 0.000000 1.760000
33 1 1 28.160000 0.000000 0.000000
34 1 1 29.920000 1.760000 0.000000
35 1 1 28.160000 1.760000 1.760000
36 1 1 29.920000 0.000000 1.760000
37 1 1 31.680000 0.000000 0.000000
38 1 1 33.440000 1.760000 0.000000
39 1 1 31.680000 1.760000 1.760000
40 1 1 33.440000 0.000000 1.760000
41 1 1 35.200000 0.000000 0.000000
42 1 1 36.960000 1.760000 0.000000
43 1 1 35.200000 1.760000 1.760000
44 1 1 36.960000 0.000000 1.760000
45 1 1 38.720000 0.000000 0.000000
46 1 1 40.480000 1.760000 0.000000
47 1 1 38.720000 1.760000 1.760000
48 1 1 40.480000 0.000000 1.760000
49 1 1 42.240000 0.000000 0.000000
50 1 1 44.000000 1.760000 0.000000
51 1 1 42.240000 1.760000 1.760000
52 1 1 44.000000 0.000000 1.760000
53 1 1 45.760000 0.000000 0.000000
54 1 1 47.520000 1.760000 0.000000
55 1 1 45.760000 1.760000 1.760000
56 1 1 47.520000 0.000000 1.760000
57 1 1 49.280000 0.000000 0.000000
58 1 1 51.040000 1.760000 0.000000
59 1 1 49.280000 1.760000 1.760000
60 1 1 51.040000 0.000000 1.760000
61 1 1 52.800000 0.000000 0.000000
62 1 1 54.560000 1.760000 0.000000
63 1 1 52.800000 1.760000 1.760000
64 1 1 54.560000 0.000000 1.760000
65 1 1 56.320000 0.000000 0.000000
66 1 1 58.080000 1.760000 0.000000
67 1 1 56.320000 1.760000 1.760000
68 1 1 58.080000 0.000000 1.760000
69 1 1 59.840000 0.000000 0.000000
70 1 1 61.600000 1.760000 0.000000
71 1 1 59.840000 1.760000 1.760000
72 1 1 61.600000 0.000000 1.760000
73 1 1 63.360000 0.000000 0.000000
74 1 1 65.120000 1.760000 0.000000
75 1 1 63.360000 1.760000 1.760000
76 1 1 65.120000 0.000000 1.760000
77 1 1 66.880000 0.000000 0.000000
78 1 1 68.640000 1.760000 0.000000
79 1 1 66.880000 1.760000 1.760000
80 1 1 68.640000 0.000000 1.760000
81 1 1 0.000000 3.520000 0.000000
82 1 1 1.760000 5.280000 0.000000
83 1 1 0.000000 5.280000 1.760000
84 1 1 1.760000 3.520000 1.760000
85 1 1 3.520000 3.520000 0.000000
86 1 1 5.280000 5.280000 0.000000
87 1 1 3.520000 5.280000 1.760000
88 1 1 5.280000 3.520000 1.760000
89 1 1 7.040000 3.520000 0.000000
90 1 1 8.800000 5.280000 0.000000
91 1 1 7.040000 5.280000 1.760000
92 1 1 8.800000 3.520000 1.760000
93 1 1 10.560000 3.520000 0.000000
94 1 1 12.320000 5.280000 0.000000
95 1 1 10.560000 5.280000 1.760000
96 1 1 12.320000 3.520000 1.760000
97 1 1 14.080000 3.520000 0.000000
98 1 1 15.840000 5.280000 0.000000
99 1 1 14.080000 5.280000 1.760000
100 1 1 15.840000 3.520000 1.760000
101 1 1 17.600000 3.520000 0.000000
102 1 1 19.360000 5.280000 0.000000
103 1 1 17.600000 5.280000 1.760000
104 1 1 19.360000 3.520000 1.760000
105 1 1 21.120000 3.520000 0.000000
106 1 1 22.880000 5.280000 0.000000
107 1 1 21.120000 5.280000 1.760000
108 1 1 22.880000 3.520000 1.760000
109 1 1 24.640000 3.520000 0.000000
110 1 1 26.400000 5.280000 0.000000
111 1 1 24.640000 5.280000 1.760000
112 1 1 26.400000 3.520000 1.760000
113 1 1 28.160000 3.520000 0.000000
114 1 1 29.920000 5.280000 0.000000
115 1 1 28.160000 5.280000 1.760000
116 1 1 29.920000 3.520000 1.760000
117 1 1 31.680000 3.520000 0.000000
118 1 1 33.440000 5.280000 0.000000
119 1 1 31.680000 5.280000 1.760000
120 1 1 33.440000 3.520000 1.760000
121 1 1 35.200000 3.520000 0.000000
122 1 1 36.960000 5.280000 0.000000
123 1 1 35.200000 5.280000 1.760000
124 1 1 36.960000 3.520000 1.760000
125 1 1 38.720000 3.520000 0.000000
126 1 1 40.480000 5.280000 0.000000
127 1 1 38.720000 5.280000 1.760000
128 1 1 40.480000 3.520000 1.760000
129 1 1 42.240000 3.520000 0.000000
130 1 1 44.000000 5.280000 0.000000
131 1 1 42.240000 5.280000 1.760000
132 1 1 44.000000 3.520000 1.760000
133 1 1 45.760000 3.520000 0.000000
134 1 1 47.520000 5.280000 0.000000
135 1 1 45.760000 5.280000 1.760000
136 1 1 47.520000 3.520000 1.760000
137 1 1 49.280000 3.520000 0.000000
138 1 1 51.040000 5.280000 0.000000
139 1 1 49.280000 5.280000 1.760000
140 1 1 51.040000 3.520000 1.760000
141 1 1 52.800000 3.520000 0.000000
142 1 1 54.560000 5.280000 0.000000
143 1 1 52.800000 5.280000 1.760000
144 1 1 54.560000 3.520000 1.760000
145 1 1 56.320000 3.520000 0.000000
146 1 1 58.080000 5.280000 0.000000
147 1 1 56.320000 5.280000 1.760000
148 1 1 58.080000 3.520000 1.760000
149 1 1 59.840000 3.520000 0.000000
150 1 1 61.600000 5.280000 0.000000
151 1 1 59.840000 5.280000 1.760000
152 1 1 61.600000 3.520000 1.760000
153 1 1 63.360000 3.520000 0.000000
154 1 1 65.120000 5.280000 0.000000
155 1 1 63.360000 5.280000 1.760000
156 1 1 65.120000 3.520000 1.760000
157 1 1 66.880000 3.520000 0.000000
158 1 1 68.640000 5.280000 0.000000
159 1 1 66.880000 5.280000 1.760000
160 1 1 68.640000 3.520000 1.760000
161 1 1 0.000000 7.040000 0.000000
162 1 1 1.760000 8.800000 0.000000
163 1 1 0.000000 8.800000 1.760000
164 1 1 1.760000 7.040000 1.760000
165 1 1 3.520000 7.040000 0.000000
166 1 1 5.280000 8.800000 0.000000
167 1 1 3.520000 8.800000 1.760000
168 1 1 5.280000 7.040000 1.760000
169 1 1 7.040000 7.040000 0.000000
170 1 1 8.800000 8.800000 0.000000
171 1 1 7.040000 8.800000 1.760000
172 1 1 8.800000 7.040000 1.760000
173 1 1 10.560000 7.040000 0.000000
174 1 1 12.320000 8.800000 0.000000
175 1 1 10.560000 8.800000 1.760000
176 1 1 12.320000 7.040000 1.760000
177 1 1 14.080000 7.040000 0.000000
178 1 1 15.840000 8.800000 0.000000
179 1 1 14.080000 8.800000 1.760000
180 1 1 15.840000 7.040000 1.760000
181 1 1 17.600000 7.040000 0.000000
182 1 1 19.360000 8.800000 0.000000
183 1 1 17.600000 8.800000 1.760000
184 1 1 19.360000 7.040000 1.760000
185 1 1 21.120000 7.040000 0.000000
186 1 1 22.880000 8.800000 0.000000
187 1 1 21.120000 8.800000 1.760000
188 1 1 22.880000 7.040000 1.760000
189 1 1 24.640000 7.040000 0.000000
190 1 1 26.400000 8.800000 0.000000
191 1 1 24.640000 8.800000 1.760000
192 1 1 26.400000 7.040000 1.760000
193 1 1 28.160000 7.040000 0.000000
194 1 1 29.920000 8.800000 0.000000
195 1 1 28.160000 8.800000 1.760000
196 1 1 29.920000 7.040000 1.760000
197 1 1 31.680000 7.040000 0.000000
198 1 1 33.440000 8.800000 0.000000
199 1 1 31.680000 8.800000 1.760000
200 1 1 33.440000 7.040000 1.760000
201 1 1 35.200000 7.040000 0.000000
202 1 1 36.960000 8.800000 0.000000
203 1 1 35.200000 8.800000 1.760000
204 1 1 36.960000 7.040000 1.760000
205 1 1 38.720000 7.040000 0.000000
206 1 1 40.480000 8.800000 0.000000
207 1 1 38.720000 8.800000 1.760000
208 1 1 40.480000 7.040000 1.760000
209 1 1 42.240000 7.040000 0.000000
210 1 1 44.000000 8.800000 0.000000
211 1 1 42.240000 8.800000 1.760000
212 1 1 44.000000 7.040000 1.760000
213 1 1 45.760000 7.040000 0.000000
214 1 1 47.520000 8.800000 0.000000
215 1 1 45.760000 8.800000 1.760000
216 1 1 47.520000 7.040000 1.760000
217 1 1 49.280000 7.040000 0.000000
218 1 1 51.040000 8.800000 0.000000
219 1 1 49.280000 8.800000 1.760000
220 1 1 51.040000 7.040000 1.760000
221 1 1 52.800000 7.040000 0.000000
222 1 1 54.560000 8.800000 0.000000
223 1 1 52.800000 8.800000 1.760000
224 1 1 54.560000 7.040000 1.760000
225 1 1 56.320000 7.040000 0.000000
226 1 1 58.080000 8.800000 0.000000
227 1 1 56.320000 8.800000 1.760000
228 1 1 58.080000 7.040000 1.760000
229 1 1 59.840000 7.040000 0.000000
230 1 1 61.600000 8.800000 0.000000
231 1 1 59.840000 8.800000 1.760000
232 1 1 61.600000 7.040000 1.760000
233 1 1 63.360000 7.040000 0.000000
234 1 1 65.120000 8.800000 0.000000
235 1 1 63.360000 8.800000 1.760000
236 1 1 65.120000 7.040000 1.760000
237 1 1 66.880000 7.040000 0.000000
238 1 1 68.640000 8.800000 0.000000
239 1 1 66.880000 8.800000 1.760000
240 1 1 68.640000 7.040000 1.760000
241 1 1 0.000000 10.560000 0.000000
242 1 1 1.760000 12.320000 0.000000
243 1 1 0.000000 12.320000 1.760000
244 1 1 1.760000 10.560000 1.760000
245 1 1 3.520000 10.560000 0.000000
246 1 1 5.280000 12.320000 0.000000
247 1 1 3.520000 12.320000 1.760000
248 1 1 5.280000 10.560000 1.760000
249 1 1 7.040000 10.560000 0.000000
250 1 1 8.800000 12.320000 0.000000
251 1 1 7.040000 12.320000 1.760000
252 1 1 8.800000 10.560000 1.760000
253 1 1 10.560000 10.560000 0.000000
254 1 1 12.320000 12.320000 0.000000
255 1 1 10.560000 12.320000 1.760000
256 1 1 12.320000 10.560000 1.760000
257 1 1 14.080000 10.560000 0.000000
258 1 1 15.840000 12.320000 0.000000
259 1 1 14.080000 12.320000 1.760000
260 1 1 15.840000 10.560000 1.760000
261 1 1 17.600000 10.560000 0.000000
262 1 1 19.360000 12.320000 0.000000
263 1 1 17.600000 12.320000 1.760000
264 1 1 19.360000 10.560000 1.760000
265 1 1 21.120000 10.560000 0.000000
266 1 1 22.880000 12.320000 0.000000
267 1 1 21.120000 12.320000 1.760000
268 1 1 22.880000 10.560000 1.760000
269 1 1 24.640000 10.560000 0.000000
270 1 1 26.400000 12.320000 0.000000
271 1 1 24.640000 12.320000 1.760000
272 1 1 26.400000 10.560000 1.760000
273 1 1 28.160000 10.560000 0.000000
274 1 1 29.920000 12.320000 0.000000
275 1 1 28.160000 12.320000 1.760000
276 1 1 29.920000 10.560000 1.760000
277 1 1 31.680000 10.560000 0.000000
278 1 1 33.440000 12.320000 0.000000
279 1 1 31.680000 12.320000 1.760000
280 1 1 33.440000 10.560000 1.760000
281 1 1 35.200000 10.560000 0.000000
282 1 1 36.960000 12.320000 0.000000
283 1 1 35.200000 12.320000 1.760000
284 1 1 36.960000 10.560000 1.760000
285 1 1 38.720000 10.560000 0.000000
286 1 1 40.480000 12.320000 0.000000
287 1 1 38.720000 12.320000 1.760000
288 1 1 40.480000 10.560000 1.760000
289 1 1 42.240000 10.560000 0.000000
290 1 1 44.000000 12.320000 0.000000
291 1 1 42.240000 12.320000 1.760000
292 1 1 44.000000 10.560000 1.760000
293 1 1 45.760000 10.560000 0.000000
294 1 1 47.520000 12.320000 0.000000
295 1 1 45.760000 12.320000 1.760000
296 1 1 47.520000 10.560000 1.760000
297 1 1 49.280000 10.560000 0.000000
298 1 1 51.040000 12.320000 0.000000
299 1 1 49.280000 12.320000 1.760000
300 1 1 51.040000 10.560000 1.760000
301 1 1 52.800000 10.560000 0.000000
302 1 1 54.560000 12.320000 0.000000
303 1 1 52.800000 12.320000 1.760000
304 1 1 54.560000 10.560000 1.760000
305 1 1 56.320000 10.560000 0.000000
306 1 1 58.080000 12.320000 0.000000
307 1 1 56.320000 12.320000 1.760000
308 1 1 58.080000 10.560000 1.760000
309 1 1 59.840000 10.560000 0.000000
310 1 1 61.600000 12.320000 0.000000
311 1 1 59.840000 12.320000 1.760000
312 1 1 61.600000 10.560000 1.760000
313 1 1 63.360000 10.560000 0.000000
314 1 1 65.120000 12.320000 0.000000
315 1 1 63.360000 12.320000 1.760000
316 1 1 65.120000 10.560000 1.760000
317 1 1 66.880000 10.560000 0.000000
318 1 1 68.640000 12.320000 0.000000
319 1 1 66.880000 12.320000 1.760000
320 1 1 68.640000 10.560000 1.760000
321 1 1 0.000000 14.080000 0.000000
322 1 1 1.760000 15.840000 0.000000
323 1 1 0.000000 15.840000 1.760000
324 1 1 1.760000 14.080000 1.760000
325 1 1 3.520000 14.080000 0.000000
326 1 1 5.280000 15.840000 0.000000
327 1 1 3.520000 15.840000 1.760000
328 1 1 5.280000 14.080000 1.760000
329 1 1 7.040000 14.080000 0.000000
330 1 1 8.800000 15.840000 0.000000
331 1 1 7.040000 15.840000 1.760000
332 1 1 8.800000 14.080000 1.760000
333 1 1 10.560000 14.080000 0.000000
334 1 1 12.320000 15.840000 0.000000
335 1 1 10.560000 15.840000 1.760000
336 1 1 12.320000 14.080000 1.760000
337 1 1 14.080000 14.080000 0.000000
338 1 1 15.840000 15.840000 0.000000
339 1 1 14.080000 15.840000 1.760000
340 1 1 15.840000 14.080000 1.760000
341 1 1 17.600000 14.080000 0.000000
342 1 1 19.360000 15.840000 0.000000
343 1 1 17.600000 15.840000 1.760000
344 1 1 19.360000 14.080000 1.760000
345 1 1 21.120000 14.080000 0.000000
346 1 1 22.880000 15.840000 0.000000
347 1 1 21.120000 15.840000 1.760000
348 1 1 22.880000 14.080000 1.760000
349 1 1 24.640000 14.080000 0.000000
350 1 1 26.400000 15.840000 0.000000
351 1 1 24.640000 15.840000 1.760000
352 1 1 26.400000 14.080000 1.760000
353 1 1 28.160000 14.080000 0.000000
354 1 1 29.920000 15.840000 0.000000
355 1 1 28.160000 15.840000 1.760000
356 1 1 29.920000 14.080000 1.760000
357 1 1 31.680000 14.080000 0.000000
358 1 1 33.440000 15.840000 0.000000
359 1 1 31.680000 15.840000 1.760000
360 1 1 33.440000 14.080000 1.760000
361 1 1 35.200000 14.080000 0.000000
362 1 1 36.960000 15.840000 0.000000
363 1 1 35.200000 15.840000 1.760000
364 1 1 36.960000 14.080000 1.760000
365 1 1 38.720000 14.080000 0.000000
366 1 1 40.480000 15.840000 0.000000
367 1 1 38.720000 15.840000 1.760000
368 1 1 40.480000 14.080000 1.760000
369 1 1 42.240000 14.080000 0.000000
370 1 1 44.000000 15.840000 0.000000
371 1 1 42.240000 15.840000 1.760000
372 1 1 44.000000 14.080000 1.760000
373 1 1 45.760000 14.080000 0.000000
374 1 1 47.520000 15.840000 0.000000
375 1 1 45.760000 15.840000 1.760000
376 1 1 47.520000 14.080000 1.760000
377 1 1 49.280000 14.080000 0.000000
378 1 1 51.040000 15.840000 0.000000
379 1 1 49.280000 15.840000 1.760000
380 1 1 51.040000 14.080000 1.760000
381 1 1 52.800000 14.080000 0.000000
382 1 1 54.560000 15.840000 0.000000
383 1 1 52.800000 15.840000 1.760000
384 1 1 54.560000 14.080000 1.760000
385 1 1 56.320000 14.080000 0.000000
386 1 1 58.080000 15.840000 0.000000
387 1 1 56.320000 15.840000 1.760000
388 1 1 58.080000 14.080000 1.760000
389 1 1 59.840000 14.080000 0.000000
390 1 1 61.600000 15.840000 0.000000
391 1 1 59.840000 15.840000 1.760000
392 1 1 61.600000 14.080000 1.760000
393 1 1 63.360000 14.080000 0.000000
394 1 1 65.120000 15.840000 0.000000
395 1 1 63.360000 15.840000 1.760000
396 1 1 65.120000 14.080000 1.760000
397 1 1 66.880000 14.080000 0.000000
398 1 1 68.640000 15.840000 0.000000
399 1 1 66.880000 15.840000 1.760000
400 1 1 68.640000 14.080000 1.760000
401 1 1 0.000000 17.600000 0.000000
402 1 1 1.760000 19.360000 0.000000
403 1 1 0.000000 19.360000 1.760000
404 1 1 1.760000 17.600000 1.760000
405 1 1 3.520000 17.600000 0.000000
406 1 1 5.280000 19.360000 0.000000
407 1 1 3.520000 19.360000 1.760000
408 1 1 5.280000 17.600000 1.760000
409 1 1 7.040000 17.600000 0.000000
410 1 1 8.800000 19.360000 0.000000
411 1 1 7.040000 19.360000 1.760000
412 1 1 8.800000 17.600000 1.760000
413 1 1 10.560000 17.600000 0.000000
414 1 1 12.320000 19.360000 0.000000
415 1 1 10.560000 19.360000 1.760000
416 1 1 12.320000 17.600000 1.760000
417 1 1 14.080000 17.600000 0.000000
418 1 1 15.840000 19.360000 0.000000
419 1 1 14.080000 19.360000 1.760000
420 1 1 15.840000 17.600000 1.760000
421 1 1 17.600000 17.600000 0.000000
422 1 1 19.360000 19.360000 0.000000
423 1 1 17.600000 19.360000 1.760000
424 1 1 19.360000 17.600000 1.760000
425 1 1 21.120000 17.600000 0.000000
426 1 1 22.880000 19.360000 0.000000
427 1 1 21.120000 19.360000 1.760000
428 1 1 22.880000 17.600000 1.760000
429 1 1 24.640000 17.600000 0.000000
430 1 1 26.400000 19.360000 0.000000
431 1 1 24.640000 19.360000 1.760000
432 1 1 26.400000 17.600000 1.760000
433 1 1 28.160000 17.600000 0.000000
434 1 1 29.920000 19.360000 0.000000
435 1 1 28.160000 19.360000 1.760000
436 1 1 29.920000 17.600000 1.760000
437 1 1 31.680000 17.600000 0.000000
438 1 1 33.440000 19.360000 0.000000
439 1 1 31.680000 19.360000 1.760000
440 1 1 33.440000 17.600000 1.760000
441 1 1 35.200000 17.600000 0.000000
442 1 1 36.960000 19.360000 0.000000
443 1 1 35.200000 19.360000 1.760000
444 1 1 36.960000 17.600000 1.760000
445 1 1 38.720000 17.600000 0.000000
446 1 1 40.480000 19.360000 0.000000
447 1 1 38.720000 19.360000 1.760000
448 1 1 40.480000 17.600000 1.760000
449 1 1 42.240000 17.600000 0.000000
450 1 1 44.000000 19.360000 0.000000
451 1 1 42.240000 19.360000 1.760000
452 1 1 44.000000 17.600000 1.760000
453 1 1 45.760000 17.600000 0.000000
454 1 1 47.520000 19.360000 0.000000
455 1 1 45.760000 19.360000 1.760000
456 1 1 47.520000 17.600000 1.760000
457 1 1 49.280000 17.600000 0.000000
458 1 1 51.040000 19.360000 0.000000
459 1 1 49.280000 19.360000 1.760000
460 1 1 51.040000 17.600000 1.760000
461 1 1 52.800000 17.600000 0.000000
462 1 1 54.560000 19.360000 0.000000
463 1 1 52.800000 19.360000 1.760000
464 1 1 54.560000 17.600000 1.760000
465 1 1 56.320000 17.600000 0.000000
466 1 1 58.080000 19.360000 0.000000
467 1 1 56.320000 19.360000 1.760000
468 1 1 58.080000 17.600000 1.760000
469 1 1 59.840000 17.600000 0.000000
470 1 1 61.600000 19.360000 0.000000
471 1 1 59.840000 19.360000 1.760000
472 1 1 61.600000 17.600000 1.760000
473 1 1 63.360000 17.600000 0.000000
474 1 1 65.120000 19.360000 0.000000
475 1 1 63.360000 19.360000 1.760000
476 1 1 65.120000 17.600000 1.760000
477 1 1 66.880000 17.600000 0.000000
478 1 1 68.640000 19.360000 0.000000
479 1 1 66.880000 19.360000 1.760000
480 1 1 68.640000 17.600000 1.760000
481 1 1 0.000000 21.120000 0.000000
482 1 1 1.760000 22.880000 0.000000
483 1 1 0.000000 22.880000 1.760000
484 1 1 1.760000 21.120000 1.760000
485 1 1 3.520000 21.120000 0.000000
486 1 1 5.280000 22.880000 0.000000
487 1 1 3.520000 22.880000 1.760000
488 1 1 5.280000 21.120000 1.760000
489 1 1 7.040000 21.120000 0.000000
490 1 1 8.800000 22.880000 0.000000
491 1 1 7.040000 22.880000 1.760000
492 1 1 8.800000 21.120000 1.760000
493 1 1 10.560000 21.120000 0.000000
494 1 1 12.320000 22.880000 0.000000
495 1 1 10.560000 22.880000 1.760000
496 1 1 12.320000 21.120000 1.760000
497 1 1 14.080000 21.120000 0.000000
498 1 1 15.840000 22.880000 0.000000
499 1 1 14.080000 22.880000 1.760000
500 1 1 15.840000 21.120000 1.760000
501 1 1 17.600000 21.120000 0.000000
502 1 1 19.360000 22.880000 0.000000
503 1 1 17.600000 22.880000 1.760000
504 1 1 19.360000 21.120000 1.760000
505 1 1 21.120000 21.120000 0.000000
506 1 1 22.880000 22.880000 0.000000
507 1 1 21.120000 22.880000 1.760000
508 1 1 22.880000 21.120000 1.760000
509 1 1 24.640000 21.120000 0.000000
510 1 1 26.400000 22.880000 0.000000
511 1 1 24.640000 22.880000 1.760000
512 1 1 26.400000 21.120000 1.760000
513 1 1 28.160000 21.120000 0.000000
514 1 1 29.920000 22.880000 0.000000
515 1 1 28.160000 22.880000 1.760000
516 1 1 29.920000 21.120000 1.760000
517 1 1 31.680000 21.120000 0.000000
518 1 1 33.440000 22.880000 0.000000
519 1 1 31.680000 22.880000 1.760000
520 1 1 33.440000 21.120000 1.760000
521 1 1 35.200000 21.120000 0.000000
522 1 1 36.960000 22.880000 0.000000
523 1 1 35.200000 22.880000 1.760000
524 1 1 36.960000 21.120000 1.760000
525 1 1 38.720000 21.120000 0.000000
526 1 1 40.480000 22.880000 0.000000
527 1 1 38.720000 22.880000 1.760000
528 1 1 40.480000 21.120000 1.760000
529 1 1 42.240000 21.120000 0.000000
530 1 1 44.000000 22.880000 0.000000
531 1 1 42.240000 22.880000 1.760000
532 1 1 44.000000 21.120000 1.760000
533 1 1 45.760000 21.120000 0.000000
534 1 1 47.520000 22.880000 0.000000
535 1 1 45.760000 22.880000 1.760000
536 1 1 47.520000 21.120000 1.760000
537 1 1 49.280000 21.120000 0.000000
538 1 1 51.040000 22.880000 0.000000
539 1 1 49.280000 22.880000 1.760000
540 1 1 51.040000 21.120000 1.760000
541 1 1 52.800000 21.120000 0.000000
542 1 1 54.560000 22.880000 0.000000
543 1 1 52.800000 22.880000 1.760000
544 1 1 54.560000 21.120000 1.760000
545 1 1 56.320000 21.120000 0.000000
546 1 1 58.080000 22.880000 0.000000
547 1 1 56.320000 22.880000 1.760000
548 1 1 58.080000 21.120000 1.760000
549 1 1 59.840000 21.120000 0.000000
550 1 1 61.600000 22.880000 0.000000
551 1 1 59.840000 22.880000 1.760000
552 1 1 61.600000 21.120000 1.760000
553 1 1 63.360000 21.120000 0.000000
554 1 1 65.120000 22.880000 0.000000
555 1 1 63.360000 22.880000 1.760000
556 1 1 65.120000 21.120000 1.760000
557 1 1 66.880000 21.120000 0.000000
558 1 1 68.640000 22.880000 0.000000
559 1 1 66.880000 22.880000 1.760000
560 1 1 68.640000 21.120000 1.760000
561 1 1 0.000000 24.640000 0.000000
562 1 1 1.760000 26.400000 0.000000
563 1 1 0.000000 26.400000 1.760000
564 1 1 1.760000 24.640000 1.760000
565 1 1 3.520000 24.640000 0.000000
566 1 1 5.280000 26.400000 0.000000
567 1 1 3.520000 26.400000 1.760000
568 1 1 5.280000 24.640000 1.760000
569 1 1 7.040000 24.640000 0.000000
570 1 1 8.800000 26.400000 0.000000
571 1 1 7.040000 26.400000 1.760000
572 1 1 8.800000 24.640000 1.760000
573 1 1 10.560000 24.640000 0.000000
574 1 1 12.320000 26.400000 0.000000
575 1 1 10.560000 26.400000 1.760000
576 1 1 12.320000 24.640000 1.760000
577 1 1 14.080000 24.640000 0.000000
578 1 1 15.840000 26.400000 0.000000
579 1 1 14.080000 26.400000 1.760000
580 1 1 15.840000 24.640000 1.760000
581 1 1 17.600000 24.640000 0.000000
582 1 1 19.360000 26.400000 0.000000
583 1 1 17.600000 26.400000 1.760000
584 1 1 19.360000 24.640000 1.760000
585 1 1 21.120000 24.640000 0.000000
586 1 1 22.880000 26.400000 0.000000
587 1 1 21.120000 26.400000 1.760000
588 1 1 22.880000 24.640000 1.760000
589 1 1 24.640000 24.640000 0.000000
590 1 1 26.400000 26.400000 0.000000
591 1 1 24.640000 26.400000 1.760000
592 1 1 26.400000 24.640000 1.760000
593 1 1 28.160000 24.640000 0.000000
594 1 1 29.920000 26.400000 0.000000
595 1 1 28.160000 26.400000 1.760000
596 1 1 29.920000 24.640000 1.760000
597 1 1 31.680000 24.640000 0.000000
598 1 1 33.440000 26.400000 0.000000
599 1 1 31.680000 26.400000 1.760000
600 1 1 33.440000 24.640000 1.760000
601 1 1 35.200000 24.640000 0.000000
602 1 1 36.960000 26.400000 0.000000
603 1 1 35.200000 26.400000 1.760000
604 1 1 36.960000 24.640000 1.760000
605 1 1 38.720000 24.640000 0.000000
606 1 1 40.480000 26.400000 0.000000
607 1 1 38.720000 26.400000 1.760000
608 1 1 40.480000 24.640000 1.760000
609 1 1 42.240000 24.640000 0.000000
610 1 1 44.000000 26.400000 0.000000
611 1 1 42.240000 26.400000 1.760000
612 1 1 44.000000 24.640000 1.760000
613 1 1 45.760000 24.640000 0.000000
614 1 1 47.520000 26.400000 0.000000
615 1 1 45.760000 26.400000 1.760000
616 1 1 47.520000 24.640000 1.760000
617 1 1 49.280000 24.640000 0.000000
618 1 1 51.040000 26.400000 0.000000
619 1 1 49.280000 26.400000 1.760000
620 1 1 51.040000 24.640000 1.760000
621 1 1 52.800000 24.640000 0.000000
622 1 1 54.560000 26.400000 0.000000
623 1 1 52.800000 26.400000 1.760000
624 1 1 54.560000 24.640000 1.760000
625 1 1 56.320000 24.640000 0.000000
626 1 1 58.080000 26.400000 0.000000
627 1 1 56.320000 26.400000 1.760000
628 1 1 58.080000 24.640000 1.760000
629 1 1 59.840000 24.640000 0.000000
630 1 1 61.600000 26.400000 0.000000
631 1 1 59.840000 26.400000 1.760000
632 1 1 61.600000 24.640000 1.760000
633 1 1 63.360000 24.640000 0.000000
634 1 1 65.120000 26.400000 0.000000
635 1 1 63.360000 26.400000 1.760000
636 1 1 65.120000 24.640000 1.760000
637 1 1 66.880000 24.640000 0.000000
638 1 1 68.640000 26.400000 0.000000
639 1 1 66.880000 26.400000 1.760000
640 1 1 68.640000 24.640000 1.760000
641 1 1 0.000000 28.160000 0.000000
642 1 1 1.760000 29.920000 0.000000
643 1 1 0.000000 29.920000 1.760000
644 1 1 1.760000 28.160000 1.760000
645 1 1 3.520000 28.160000 0.000000
646 1 1 5.280000 29.920000 0.000000
647 1 1 3.520000 29.920000 1.760000
648 1 1 5.280000 28.160000 1.760000
649 1 1 7.040000 28.160000 0.000000
650 1 1 8.800000 29.920000 0.000000
651 1 1 7.040000 29.920000 1.760000
652 1 1 8.800000 28.160000 1.760000
653 1 1 10.560000 28.160000 0.000000
654 1 1 12.320000 29.920000 0.000000
655 1 1 10.560000 29.920000 1.760000
656 1 1 12.320000 28.160000 1.760000
657 1 1 14.080000 28.160000 0.000000
658 1 1 15.840000 29.920000 0.000000
659 1 1 14.080000 29.920000 1.760000
660 1 1 15.840000 28.160000 1.760000
661 1 1 17.600000 28.160000 0.000000
662 1 1 19.360000 29.920000 0.000000
663 1 1 17.600000 29.920000 1.760000
664 1 1 19.360000 28.160000 1.760000
665 1 1 21.120000 28.160000 0.000000
666 1 1 22.880000 29.920000 0.000000
667 1 1 21.120000 29.920000 1.760000
668 1 1 22.880000 28.160000 1.760000
669 1 1 24.640000 28.160000 0.000000
670 1 1 26.400000 29.920000 0.000000
671 1 1 24.640000 29.920000 1.760000
672 1 1 26.400000 28.160000 1.760000
673 1 1 28.160000 28.160000 0.000000
674 1 1 29.920000 29.920000 0.000000
675 1 1 28.160000 29.920000 1.760000
676 1 1 29.920000 28.160000 1.760000
677 1 1 31.680000 28.160000 0.000000
678 1 1 33.440000 29.920000 0.000000
679 1 1 31.680000 29.920000 1.760000
680 1 1 33.440000 28.160000 1.760000
681 1 1 35.200000 28.160000 0.000000
682 1 1 36.960000 29.920000 0.000000
683 1 1 35.200000 29.920000 1.760000
684 1 1 36.960000 28.160000 1.760000
685 1 1 38.720000 28.160000 0.000000
686 1 1 40.480000 29.920000 0.000000
687 1 1 38.720000 29.920000 1.760000
688 1 1 40.480000 28.160000 1.760000
689 1 1 42.240000 28.160000 0.000000
690 1 1 44.000000 29.920000 0.000000
691 1 1 42.240000 29.920000 1.760000
692 1 1 44.000000 28.160000 1.760000
693 1 1 45.760000 28.160000 0.000000
694 1 1 47.520000 29.920000 0.000000
695 1 1 45.760000 29.920000 1.760000
696 1 1 47.520000 28.160000 1.760000
697 1 1 49.280000 28.160000 0.000000
698 1 1 51.040000 29.920000 0.000000
699 1 1 49.280000 29.920000 1.760000
700 1 1 51.040000 28.160000 1.760000
701 1 1 52.800000 28.160000 0.000000
702 1 1 54.560000 29.920000 0.000000
703 1 1 52.800000 29.920000 1.760000
704 1 1 54.560000 28.160000 1.760000
705 1 1 56.320000 28.160000 0.000000
706 1 1 58.080000 29.920000 0.000000
707 1 1 56.320000 29.920000 1.760000
708 1 1 58.080000 28.160000 1.760000
709 1 1 59.840000 28.160000 0.000000
710 1 1 61.600000 29.920000 0.000000
711 1 1 59.840000 29.920000 1.760000
712 1 1 61.600000 28.160000 1.760000
713 1 1 63.360000 28.160000 0.000000
714 1 1 65.120000 29.920000 0.000000
715 1 1 63.360000 29.920000 1.760000
716 1 1 65.120000 28.160000 1.760000
717 1 1 66.880000 28.160000 0.000000
718 1 1 68.640000 29.920000 0.000000
719 1 1 66.880000 29.920000 1.760000
720 1 1 68.640000 28.160000 1.760000
721 1 1 0.000000 31.680000 0.000000
722 1 1 1.760000 33.440000 0.000000
723 1 1 0.000000 33.440000 1.760000
724 1 1 1.760000 31.680000 1.760000
725 1 1 3.520000 31.680000 0.000000
726 1 1 5.280000 33.440000 0.000000
727 1 1 3.520000 33.440000 1.760000
728 1 1 5.280000 31.680000 1.760000
729 1 1 7.040000 31.680000 0.000000
730 1 1 8.800000 33.440000 0.000000
731 1 1 7.040000 33.440000 1.760000
732 1 1 8.800000 31.680000 1.760000
733 1 1 10.560000 31.680000 0.000000
734 1 1 12.320000 33.440000 0.000000
735 1 1 10.560000 33.440000 1.760000
736 1 1 12.320000 31.680000 1.760000
737 1 1 14.080000 31.680000 0.000000
738 1 1 15.840000 33.440000 0.000000
739 1 1 14.080000 33.440000 1.760000
740 1 1 15.840000 31.680000 1.760000
741 1 1 17.600000 31.680000 0.000000
742 1 1 19.360000 33.440000 0.000000
743 1 1 17.600000 33.440000 1.760000
744 1 1 19.360000 31.680000 1.760000
745 1 1 21.120000 31.680000 0.000000
746 1 1 22.880000 33.440000 0.000000
747 1 1 21.120000 33.440000 1.760000
748 1 1 22.880000 31.680000 1.760000
749 1 1 24.640000 31.680000 0.000000
750 1 1 26.400000 33.440000 0.000000
751 1 1 24.640000 33.440000 1.760000
752 1 1 26.400000 31.680000 1.760000
753 1 1 28.160000 31.680000 0.000000
754 1 1 29.920000 33.440000 0.000000
755 1 1 28.160000 33.440000 1.760000
756 1 1 29.920000 31.680000 1.760000
757 1 1 31.680000 31.680000 0.000000
758 1 1 33.440000 33.440000 0.000000
759 1 1 31.680000 33.440000 1.760000
760 1 1 33.440000 31.680000 1.760000
761 1 1 35.200000 31.680000 0.000000
762 1 1 36.960000 33.440000 0.000000
763 1 1 35.200000 33.440000 1.760000
764 1 1 36.960000 31.680000 1.760000
765 1 1 38.720000 31.680000 0.000000
766 1 1 40.480000 33.440000 0.000000
767 1 1 38.720000 33.440000 1.760000
768 1 1 40.480000 31.680000 1.760000
769 1 1 42.240000 31.680000 0.000000
770 1 1 44.000000 33.440000 0.000000
771 1 1 42.240000 33.440000 1.760000
772 1 1 44.000000 31.680000 1.760000
773 1 1 45.760000 31.680000 0.000000
774 1 1 47.520000 33.440000 0.000000
775 1 1 45.760000 33.440000 1.760000
776 1 1 47.520000 31.680000 1.760000
777 1 1 49.280000 31.680000 0.000000
778 1 1 51.040000 33.440000 0.000000
779 1 1 49.280000 33.440000 1.760000
780 1 1 51.040000 31.680000 1.760000
781 1 1 52.800000 31.680000 0.000000
782 1 1 54.560000 33.440000 0.000000
783 1 1 52.800000 33.440000 1.760000
784 1 1 54.560000 31.680000 1.760000
785 1 1 56.320000 31.680000 0.000000
786 1 1 58.080000 33.440000 0.000000
787 1 1 56.320000 33.440000 1.760000
788 1 1 58.080000 31.680000 1.760000
789 1 1 59.840000 31.680000 0.000000
790 1 1 61.600000 33.440000 0.000000
791 1 1 59.840000 33.440000 1.760000
792 1 1 61.600000 31.680000 1.760000
793 1 1 63.360000 31.680000 0.000000
794 1 1 65.120000 33.440000 0.000000
795 1 1 63.360000 33.440000 1.760000
796 1 1 65.120000 31.680000 1.760000
797 1 1 66.880000 31.680000 0.000000
798 1 1 68.640000 33.440000 0.000000
799 1 1 66.880000 33.440000 1.760000
800 1 1 68.640000 31.680000 1.760000
801 1 1 0.000000 35.200000 0.000000
802 1 1 1.760000 36.960000 0.000000
803 1 1 0.000000 36.960000 1.760000
804 1 1 1.760000 35.200000 1.760000
805 1 1 3.520000 35.200000 0.000000
806 1 1 5.280000 36.960000 0.000000
807 1 1 3.520000 36.960000 1.760000
808 1 1 5.280000 35.200000 1.760000
809 1 1 7.040000 35.200000 0.000000
810 1 1 8.800000 36.960000 0.000000
811 1 1 7.040000 36.960000 1.760000
812 1 1 8.800000 35.200000 1.760000
813 1 1 10.560000 35.200000 0.000000
814 1 1 12.320000 36.960000 0.000000
815 1 1 10.560000 36.960000 1.760000
816 1 1 12.320000 35.200000 1.760000
817 1 1 14.080000 35.200000 0.000000
818 1 1 15.840000 36.960000 0.000000